17
gdb 15254	2.90177	1.59363	1.42156	1.4187	66.49	-0.2375	-0.0428	0.1947	958.529	0.140184	-400.961307	-400.952481	-400.951537	-400.994683	31.175	
C	-1.8937950847	 0.5784029381	-0.8691913461	-0.340263
N	-0.8204858274	-0.3863784685	-0.6385073535	-0.096595
C	 0.4346730928	-0.3107766795	-1.3469311301	-0.022177
C	 0.7681456725	 0.7381470256	-2.3896962023	-0.108326
O	 0.2789506719	 0.3525061892	-3.6685083303	-0.417099
C	 0.3725805628	-0.0158773253	 0.1435034804	-0.127594
C	 0.6214813688	 1.3519008199	 0.6727739059	 0.149744
O	 0.265725682	 2.3980839078	 0.1762003843	-0.274393
H	-1.5738549155	 1.6163961415	-0.9993538848	 0.150332
H	-2.4527742779	 0.2490197284	-1.7519194063	 0.119895
H	-2.5760210597	 0.5389926164	-0.0149339689	 0.132179
H	 0.8376186937	-1.291525533	-1.6011174602	 0.110728
H	 0.4163412772	 1.7295655014	-2.0911474053	 0.130532
H	 1.8569738717	 0.7935921792	-2.4935449499	 0.117611
H	-0.6800377307	 0.4302381079	-3.6533167344	 0.286814
H	 0.7074092634	-0.7979342713	 0.8228666009	 0.101463
H	 1.1857733191	 1.3491893322	 1.6319335404	 0.087149
79.6527	142.251	146.6575	180.2613	214.2623	253.4381	294.3845	303.9688	382.3821	457.4541	530.0656	708.3275	752.9832	821.4009	859.925	975.3069	996.5237	1027.2797	1061.7855	1082.8283	1125.0045	1147.8192	1159.8289	1169.4109	1227.4455	1344.392	1349.5938	1379.4277	1408.8734	1430.2074	1437.456	1450.1897	1484.3437	1501.6872	1525.4691	1792.7154	2883.2232	3030.0532	3053.0146	3094.2779	3100.2015	3107.9849	3112.3459	3123.8832	3823.548
CN1C(CO)C1C=O	CN1[C@@H](CO)[C@H]1C=O	
InChI=1S/C5H9NO2/c1-6-4(2-7)5(6)3-8/h2,4-5,8H,3H2,1H3	InChI=1S/C5H9NO2/c1-6-4(2-7)5(6)3-8/h2,4-5,8H,3H2,1H3/t4-,5+,6?/m1/s1
