18
gdb 109206	5.74251	0.80927	0.7188	5.3414	76.48	-0.2332	0.0127	0.2459	1510.4738	0.14741	-439.112028	-439.102893	-439.101949	-439.146943	32.071	
O	-0.0143959944	 1.3943796836	 0.0066400415	-0.411775
C	-0.0232547154	-0.0192820112	 0.002291335	-0.171797
C	-1.4351677028	-0.504423894	 0.0127159257	 0.302305
C	-2.5474357637	 0.2266527671	 0.0236754529	-0.178331
C	-3.7814452001	-0.6287812386	 0.0315486919	-0.198268
N	-3.2162625501	-1.9811585882	 0.023750201	-0.060184
C	-1.7537038452	-1.980551079	 0.0115191827	-0.266055
C	-3.9936482279	-3.088160259	 0.0303365393	 0.145462
O	-5.2087541586	-3.0785904499	 0.0418251321	-0.341687
H	 0.9001525424	 1.6899886475	-0.0001649853	 0.293717
H	 0.4933787114	-0.4250504155	-0.8861623102	 0.100082
H	 0.5083675958	-0.4306130235	 0.8792642135	 0.100062
H	-2.5792029494	 1.3070206012	 0.026683273	 0.123549
H	-4.4130419287	-0.4722558333	 0.9166362126	 0.130482
H	-4.4271231654	-0.4678222967	-0.8425319071	 0.130407
H	-1.3498333723	-2.4895668357	-0.8772900519	 0.118412
H	-1.33508426	-2.4942424921	 0.8907485318	 0.118437
H	-3.3947154157	-4.0222940826	 0.0239866615	 0.065181
36.7306	80.3863	153.3026	194.7543	208.8172	240.6968	254.559	334.3936	360.2255	440.4507	567.1071	669.6436	769.2073	819.5948	872.209	908.82	995.8972	999.6117	1032.1625	1036.8177	1075.7356	1080.9676	1168.9248	1190.4965	1203.3894	1217.7189	1236.6372	1253.2895	1295.8008	1342.2428	1357.1922	1412.0985	1447.8716	1472.0818	1507.431	1514.0846	1522.836	1736.883	1794.0548	2918.1334	2937.8881	2950.0363	2976.9359	2993.8959	3010.4084	3029.2063	3242.1293	3841.8139
OCC1=CCN(C1)C=O	OCC1=CCN(C1)C=O	
InChI=1S/C6H9NO2/c8-4-6-1-2-7(3-6)5-9/h1,5,8H,2-4H2	InChI=1S/C6H9NO2/c8-4-6-1-2-7(3-6)5-9/h1,5,8H,2-4H2
