23
gdb 119828	3.89752	0.73651	0.66118	1.3858	88.8	-0.2265	0.0308	0.2573	1767.3383	0.205516	-388.308756	-388.298684	-388.29774	-388.344543	36.998	
C	 0.0238638736	 1.561096602	 0.0428558198	-0.403612
C	 0.1176925616	 0.0366741844	 0.0440066271	 0.049625
C	 0.7827726122	-0.5740274675	-1.2195064549	-0.258773
C	 1.4546053649	-1.8153384369	-0.6871889266	-0.175949
C	 1.5376796149	-1.8240094322	 0.6456588567	 0.326669
C	 2.167596618	-2.8830975337	 1.4996797512	-0.296254
C	 3.4075609666	-2.3970671093	 2.2539016452	-0.066229
O	 3.8868197998	-3.4825915407	 3.0328684926	-0.41829
C	 0.9231469154	-0.5628566866	 1.226403346	-0.312287
H	 1.020232651	 2.0152495172	-0.0133431403	 0.110812
H	-0.5552777112	 1.9243749274	-0.8130633028	 0.111376
H	-0.4601611521	 1.9330057432	 0.9525155946	 0.110611
H	-0.8977291633	-0.3749426648	 0.1039409928	 0.075833
H	 0.0563935581	-0.7789879272	-2.0147688657	 0.097431
H	 1.5230765897	 0.1165627673	-1.6528846873	 0.097091
H	 1.8505538796	-2.5934975211	-1.332327144	 0.08199
H	 1.4495641138	-3.2461938724	 2.2478767004	 0.108078
H	 2.4539367757	-3.7447156815	 0.8874602399	 0.107884
H	 4.1643226859	-2.0547553844	 1.5303017178	 0.088389
H	 3.1481213474	-1.5359454822	 2.889739678	 0.087421
H	 4.669980095	-3.1893366159	 3.5073490668	 0.285096
H	 1.7076135688	 0.1330721277	 1.5619795479	 0.097009
H	 0.2965342044	-0.7594405626	 2.105376055	 0.09608
55.6087	69.2247	89.8502	136.1793	238.5913	256.8554	268.3182	291.5205	338.5308	375.8469	425.4911	480.2789	591.5421	698.758	798.2359	828.4865	842.986	881.2406	910.5458	938.5768	940.2247	994.363	1012.5097	1054.516	1073.2834	1080.6768	1109.54	1146.7965	1150.8465	1204.9439	1218.9996	1235.3226	1242.8346	1283.0206	1303.5462	1308.2795	1332.3205	1340.3627	1358.5864	1373.2789	1411.4984	1454.8795	1482.9806	1484.9253	1492.7534	1497.972	1500.7592	1528.0455	1717.8	2967.7479	2986.1316	2986.4821	2996.4288	3016.0365	3018.2248	3023.8648	3041.5751	3050.1239	3078.1687	3090.3118	3093.1893	3179.3562	3830.77
CC1CC=C(CCO)C1	C[C@H]1CC=C(CCO)C1	
InChI=1S/C8H14O/c1-7-2-3-8(6-7)4-5-9/h3,7,9H,2,4-6H2,1H3	InChI=1S/C8H14O/c1-7-2-3-8(6-7)4-5-9/h3,7,9H,2,4-6H2,1H3/t7-/m0/s1
