20
gdb 116075	2.66176	1.21424	0.88107	5.4628	76.3	-0.2482	0.0544	0.3027	1336.7683	0.172478	-440.346136	-440.337186	-440.336242	-440.380385	33.157	
C	 0.0723410187	 1.5641402667	-0.0120911234	-0.401883
C	 0.015743911	 0.0332472829	-0.0010423844	-0.182582
C	-1.404711044	-0.5484540004	-0.0097224098	 0.067985
C	-1.4104922306	-2.073425904	-0.1012211739	-0.234264
C	-2.8074589551	-2.5842316882	 0.208857644	-0.080387
O	-3.2160822162	-2.2086920801	 1.5281424861	-0.240845
C	-2.9762023763	-0.9417623686	 1.9620026474	 0.464731
O	-3.4773737521	-0.5484278706	 2.9860552246	-0.396391
N	-2.1398544053	-0.1736118369	 1.1936189841	-0.376254
H	 1.1075326675	 1.9119950249	-0.0717343287	 0.126131
H	-0.4682020798	 1.9769271283	-0.8709066118	 0.122161
H	-0.3564325738	 2.0020004422	 0.8960309188	 0.121431
H	 0.5347320454	-0.3518932438	-0.887449322	 0.103032
H	 0.5492675573	-0.3569977218	 0.8742067588	 0.109244
H	-1.9272900931	-0.1486018832	-0.8953696176	 0.079563
H	-1.1029666233	-2.3914349974	-1.1019613949	 0.110828
H	-0.7026153372	-2.4965104822	 0.6210387866	 0.118897
H	-3.5335814695	-2.1975397632	-0.5198521718	 0.111325
H	-2.8576323354	-3.6752664108	 0.1898185069	 0.123362
H	-2.0428362283	 0.7630534962	 1.5504575112	 0.253916
66.4896	87.2916	125.437	195.0445	221.6455	276.076	362.7046	435.7224	472.6033	493.1551	520.6197	560.9053	668.2728	762.1716	773.2984	834.7247	879.9405	928.9685	972.6859	997.8011	1023.6527	1064.7112	1084.3404	1117.7793	1162.9092	1199.4077	1225.8346	1267.4113	1288.422	1309.3207	1327.1196	1373.7158	1391.1027	1399.643	1418.2423	1439.0607	1466.2573	1474.9579	1482.601	1500.3558	1510.6116	1513.566	1842.3622	2949.8313	3012.5299	3026.3127	3033.3456	3044.1031	3064.8372	3096.6333	3099.5298	3103.1956	3109.7055	3649.9602
CCC1CCOC(=O)N1	CC[C@H]1CCOC(=O)N1	
InChI=1S/C6H11NO2/c1-2-5-3-4-9-6(8)7-5/h5H,2-4H2,1H3,(H,7,8)	InChI=1S/C6H11NO2/c1-2-5-3-4-9-6(8)7-5/h5H,2-4H2,1H3,(H,7,8)/t5-/m0/s1
