25
gdb 57353	2.20743	1.41138	1.28066	1.3207	87.44	-0.2525	0.0647	0.3173	1206.016	0.226698	-389.490042	-389.479641	-389.478697	-389.524017	41.395	
C	 0.3319155649	 1.5237743419	 0.0524852204	-0.431019
C	 0.0363259421	 0.0147470912	-0.0331790301	 0.237754
C	 0.6651854738	-0.6842776638	 1.1892377445	-0.412129
C	-1.4914110237	-0.1941137912	-0.0042693274	-0.412138
C	 0.6104227856	-0.6202437473	-1.3312870916	 0.439103
O	 0.2629273899	-1.9956109593	-1.2684262312	-0.491241
C	 0.2450943595	 0.0933580569	-2.675636702	-0.287414
C	 1.6951208426	 0.6375548015	-2.7743170571	-0.213711
C	 2.1178728168	-0.3324644326	-1.6390587603	-0.287419
H	 1.4053154087	 1.736773542	 0.0674265674	 0.111394
H	-0.1165769433	 2.082683173	-0.7747079928	 0.111394
H	-0.0895892923	 1.9263205759	 0.9795640881	 0.111654
H	 0.2510900011	-0.272036678	 2.1155271117	 0.101243
H	 0.4686475886	-1.7577119625	 1.1696098922	 0.130409
H	 1.750347525	-0.5394418382	 1.2206582663	 0.103897
H	-1.9816266752	 0.3087941835	-0.8446907921	 0.103899
H	-1.7418348071	-1.2553003841	-0.0537201131	 0.130416
H	-1.912629493	 0.2197366523	 0.9180823363	 0.101244
H	 0.6033173685	-2.4246563709	-2.0591665465	 0.272147
H	 0.0213503988	-0.6464268785	-3.4510562334	 0.087827
H	-0.5698176385	 0.820651907	-2.6638556715	 0.101449
H	 2.1985338622	 0.512351826	-3.7352580953	 0.095306
H	 1.7730024473	 1.6870955911	-2.4838631227	 0.106662
H	 2.737006722	 0.0687624997	-0.8335347356	 0.101452
H	 2.6079943758	-1.2345585155	-2.0193608843	 0.087822
102.7046	143.1363	204.2944	241.2105	252.6961	274.0107	275.708	292.4758	322.4174	344.4329	361.9574	392.9438	444.8332	467.0043	492.8159	607.4352	690.4604	771.7483	796.1994	853.8861	889.613	936.7397	940.7748	943.716	962.0658	973.3384	996.8745	1033.8296	1040.3352	1084.1844	1091.1683	1160.4938	1204.2469	1214.912	1242.3182	1243.0007	1245.6537	1259.3887	1275.9051	1288.0019	1384.0564	1393.4488	1399.6338	1431.0462	1465.9562	1480.2018	1481.2398	1490.6716	1492.0379	1502.3704	1507.4573	1511.3531	1525.1367	3032.8631	3033.2549	3040.4183	3046.3961	3051.4835	3072.3258	3091.2002	3092.7693	3096.5817	3100.2807	3101.0743	3110.0323	3125.0272	3132.7812	3136.3058	3822.3932
CC(C)(C)C1(O)CCC1	CC(C)(C)C1(O)CCC1	
InChI=1S/C8H16O/c1-7(2,3)8(9)5-4-6-8/h9H,4-6H2,1-3H3	InChI=1S/C8H16O/c1-7(2,3)8(9)5-4-6-8/h9H,4-6H2,1-3H3
