21
gdb 72934	2.64133	1.70121	1.43656	1.7469	80.91	-0.2394	0.0649	0.3043	1026.1102	0.183619	-387.03903	-387.031207	-387.030263	-387.071249	31.485	
C	-0.2593071277	 1.4706050261	-0.1731505454	-0.499979
C	 0.016403742	-0.0028108657	 0.0266893199	 0.3004
C	-1.1836185156	-0.9532920648	 0.2156712999	-0.13335
O	-0.5850790665	-1.5588790315	 1.3886670962	-0.29265
C	 0.5261975139	-0.6375894561	 1.3525635712	 0.066223
C	 1.8092136293	-1.1651118775	 0.6459741184	-0.039925
C	 1.7325976814	-2.6001551605	 0.0589096459	-0.229442
C	 1.2551404205	-2.0136799335	-1.3076932148	-0.244033
C	 1.2807018975	-0.579548805	-0.7098250839	-0.079315
H	 0.6515259768	 2.06601804	-0.0459033406	 0.118684
H	-0.6383987125	 1.6649915086	-1.1841551976	 0.119628
H	-1.0039718115	 1.8395489766	 0.5406895214	 0.117619
H	-2.1153673923	-0.4318562162	 0.4744759996	 0.094888
H	-1.3986053428	-1.6869287981	-0.5691611543	 0.102594
H	 0.645942588	-0.0977082085	 2.2978218189	 0.06668
H	 2.7523339907	-0.8500883655	 1.0957050777	 0.060051
H	 2.6981413743	-3.1078992958	 0.0088182972	 0.095027
H	 1.0158263038	-3.2475779571	 0.5657506004	 0.119602
H	 1.9917628686	-2.1375663305	-2.1056711221	 0.098457
H	 0.2960387919	-2.3752484125	-1.6865841282	 0.098186
H	 1.8327487703	 0.1720535475	-1.2777478697	 0.060654
66.1663	213.4412	231.5537	258.8958	278.9985	328.7399	430.2878	497.7208	614.2085	643.3168	715.3643	782.345	795.9545	834.2389	855.8181	892.0539	909.8873	952.7404	959.6374	965.1668	999.3163	1007.6232	1037.354	1060.1749	1113.5444	1132.3791	1153.1336	1167.935	1187.1529	1209.7934	1230.0574	1238.7948	1249.2161	1269.4418	1281.1212	1294.2799	1308.2019	1326.4648	1383.3581	1412.1507	1469.0552	1488.2813	1490.5358	1494.8148	1526.1162	3003.3035	3019.2835	3047.4142	3054.3544	3061.0347	3072.2904	3078.083	3082.2643	3092.8966	3095.1939	3102.4435	3134.2046
CC12COC1C1CCC21	C[C@]12CO[C@H]1[C@H]1CC[C@@H]21	
InChI=1S/C8H12O/c1-8-4-9-7(8)5-2-3-6(5)8/h5-7H,2-4H2,1H3	InChI=1S/C8H12O/c1-8-4-9-7(8)5-2-3-6(5)8/h5-7H,2-4H2,1H3/t5-,6+,7-,8+/m0/s1
