19
gdb 8430	3.67456	1.70538	1.68231	1.9469	69.88	-0.2239	0.07	0.2938	884.031	0.165974	-365.043399	-365.035737	-365.034793	-365.074777	30.486	
C	 0.4572203759	 1.3796159412	 0.045324581	-0.451977
C	-0.0300441307	-0.0729406746	 0.0153766721	 0.395677
O	-1.4570397843	-0.0756874067	-0.097606692	-0.470937
C	 0.5064311191	-0.8808376632	-1.1953221333	-0.268663
C	 1.5132588999	-1.8666410794	-0.6334615385	-0.015475
C	 2.6273430737	-1.3483121473	 0.2013327265	-0.249875
N	 1.4317614867	-1.9148807438	 0.8415862727	-0.090711
C	 0.4375786419	-0.9132917399	 1.251837615	-0.220857
H	 1.548369073	 1.4520401447	 0.0602491896	 0.1222
H	 0.0887841175	 1.917289657	-0.83363073	 0.126209
H	 0.0858356283	 1.8924804893	 0.9416584049	 0.106544
H	-1.8107151918	 0.4905112187	 0.5968620654	 0.273763
H	-0.3368577537	-1.4157282126	-1.6403701165	 0.123697
H	 0.9309084865	-0.2320427659	-1.9675879104	 0.103071
H	 1.6281461836	-2.8213201387	-1.1394609758	 0.09024
H	 3.5292029046	-1.9403505924	 0.3304530442	 0.114436
H	 2.7914046057	-0.2743885353	 0.2443218716	 0.107523
H	 0.8401164514	-0.2903913178	 2.058685182	 0.095672
H	-0.4369553074	-1.4475532833	 1.6369760615	 0.109463
107.9986	218.6332	265.7769	280.7003	340.3609	361.9668	381.3941	422.9115	458.0797	608.2101	652.707	760.6591	788.4141	834.2819	888.0299	920.0095	936.9021	940.1013	960.2112	1024.365	1038.2851	1098.9268	1107.2609	1120.6724	1148.6979	1171.0769	1188.5743	1225.5382	1271.8372	1293.9362	1311.9712	1329.3491	1365.3495	1399.4221	1414.4491	1480.4916	1485.4774	1490.6054	1496.966	1515.3237	3022.6518	3035.1971	3055.6986	3082.1317	3090.7472	3101.4909	3106.5473	3117.7555	3143.5649	3188.563	3803.7341
CC1(O)CC2CN2C1	C[C@@]1(O)C[C@H]2CN2C1	
InChI=1S/C6H11NO/c1-6(8)2-5-3-7(5)4-6/h5,8H,2-4H2,1H3	InChI=1S/C6H11NO/c1-6(8)2-5-3-7(5)4-6/h5,8H,2-4H2,1H3/t5-,6+,7?/m0/s1
