27
gdb 103595	2.67621	1.06674	0.92807	0.0368	95.96	-0.2687	0.0729	0.3416	1476.8186	0.250108	-353.568078	-353.557144	-353.5562	-353.603498	42.47	
C	 0.1612350714	 1.5880798068	-1.1763151936	-0.39071
C	-0.1173105241	 0.2364698487	-0.5095764561	-0.231281
C	-1.5838916198	-0.0145250599	-0.126700264	 0.395339
C	-2.0953282992	 1.0158673332	 0.8822858721	-0.456833
C	-2.5412690754	-0.2256514461	-1.3465843114	-0.325332
C	-2.8697505525	-1.6768482642	-0.8663613821	 0.382015
C	-4.3183344942	-1.8604288614	-0.4115903455	-0.443894
C	-2.4799107116	-2.7698105607	-1.8610834933	-0.443629
C	-1.8590354509	-1.4899584816	 0.3120766624	-0.336167
H	 1.2051343237	 1.6542275442	-1.4986143282	 0.110594
H	-0.4673860902	 1.7328355673	-2.0620307037	 0.116887
H	-0.0252247027	 2.4255517631	-0.4973141323	 0.117209
H	 0.2063941752	-0.5657274031	-1.1855755225	 0.088608
H	 0.5032260308	 0.1378522321	 0.3922391017	 0.089228
H	-2.0988977384	 2.0280700748	 0.4642263529	 0.113072
H	-3.1205639103	 0.7882465045	 1.1920561025	 0.110624
H	-1.4720491963	 1.0262074499	 1.7849007142	 0.107703
H	-3.4007564689	 0.4507855719	-1.3822611891	 0.086368
H	-2.0392892266	-0.1856346142	-2.3182842926	 0.086779
H	-5.0075276544	-1.8119833554	-1.2632291996	 0.108514
H	-4.4573592669	-2.83287045	 0.0758200987	 0.10864
H	-4.6187228348	-1.0859937788	 0.3020031048	 0.110295
H	-1.4439498119	-2.654737301	-2.1973836421	 0.10804
H	-2.57482909	-3.7652478829	-1.4107693955	 0.108513
H	-3.1227501743	-2.7428856097	-2.7492202574	 0.108358
H	-0.9817591615	-2.1418565413	 0.2530035228	 0.085398
H	-2.2939017359	-1.5977101761	 1.3105687269	 0.085662
41.7988	111.4621	169.5798	228.8051	239.6225	240.4483	268.8429	286.975	306.2058	307.3287	358.2562	379.7192	397.1372	445.6359	476.3328	586.2956	711.7254	789.0682	851.6173	868.7159	869.8388	886.1815	915.8014	930.7582	957.9174	979.727	1003.2844	1010.1553	1025.1419	1050.1151	1075.0874	1119.1024	1168.573	1187.6584	1222.2867	1246.6415	1255.7628	1281.5122	1299.4706	1312.7799	1340.7418	1367.2946	1400.54	1409.4074	1414.1285	1419.3171	1474.4618	1479.9695	1483.6387	1487.2798	1493.2356	1495.2226	1498.6023	1503.974	1505.3622	1508.3138	1512.0945	3005.5726	3014.3383	3018.9914	3021.8394	3034.1673	3037.455	3038.71	3043.8521	3078.1268	3084.2256	3085.0771	3086.4489	3089.3979	3092.2225	3092.5669	3098.2101	3098.5084	3108.1988
CCC1(C)CC(C)(C)C1	CCC1(C)CC(C)(C)C1	
InChI=1S/C9H18/c1-5-9(4)6-8(2,3)7-9/h5-7H2,1-4H3	InChI=1S/C9H18/c1-5-9(4)6-8(2,3)7-9/h5-7H2,1-4H3
