18
gdb 92294	3.05226	1.55719	1.23315	1.5188	71.34	-0.2524	0.021	0.2734	1025.2905	0.150046	-439.082446	-439.074997	-439.074052	-439.114406	29.308	
O	 0.0425828601	 1.4137527415	-0.091007809	-0.434095
C	 0.0076640772	 0.0202236662	-0.048896544	 0.160954
C	 0.3877521521	-0.7517621012	 1.2492162434	-0.298928
C	-0.7622758872	-1.7523730522	 0.9240993911	-0.038351
C	-1.6782712741	-2.250763973	 2.0337239092	-0.183949
N	-2.577692345	-1.2370005944	 2.5732447481	-0.256582
C	-2.7871191789	-0.1912554806	 1.9019067837	 0.125632
O	-2.288824746	 0.1953720821	 0.6933328412	-0.261675
C	-1.3807308243	-0.6779421933	-0.0016876085	 0.055138
H	-0.7057026583	 1.7220637042	 0.4355891998	 0.286697
H	 0.5867991821	-0.3481864566	-0.9012765856	 0.093991
H	 1.4014910828	-1.148261641	 1.3288732441	 0.104787
H	 0.1667216031	-0.1572974876	 2.1410443366	 0.114539
H	-0.3895415943	-2.5875729206	 0.3247237069	 0.084697
H	-2.2967236042	-3.0806525404	 1.6658409025	 0.117324
H	-1.0905620343	-2.657964865	 2.864922736	 0.116672
H	-3.4565871888	 0.584084698	 2.2706879767	 0.126326
H	-1.8680426419	-0.9741402261	-0.9334335521	 0.086824
95.4762	139.0746	227.5559	316.1134	390.4684	420.024	458.8199	483.0967	571.4279	600.3689	672.9454	765.9839	819.3081	860.9792	891.9498	932.3977	950.6	966.3078	977.4989	1052.784	1082.3632	1093.531	1122.0498	1148.842	1169.728	1193.8578	1232.7525	1263.8841	1268.3186	1301.5892	1324.8899	1348.3657	1357.6065	1385.6413	1415.329	1442.3786	1480.6281	1489.4547	1743.2818	3015.886	3050.6825	3060.4367	3066.6689	3068.6138	3084.4809	3124.4257	3156.6766	3777.1575
OC1CC2CN=COC12	O[C@H]1C[C@H]2CN=CO[C@@H]12	
InChI=1S/C6H9NO2/c8-5-1-4-2-7-3-9-6(4)5/h3-6,8H,1-2H2	InChI=1S/C6H9NO2/c8-5-1-4-2-7-3-9-6(4)5/h3-6,8H,1-2H2/t4-,5-,6+/m0/s1
