15
gdb 14012	4.52403	1.28974	1.1876	2.5434	62.98	-0.2542	-0.0357	0.2185	1008.8807	0.117914	-399.748806	-399.741368	-399.740423	-399.781152	26.524	
O	-0.3150258648	 0.450233897	 0.7764703322	-0.255506
C	 0.2510540625	 0.8334625561	-0.2154242224	 0.182586
C	 1.4153875374	 1.7615160089	-0.2051688858	-0.194942
N	 2.2695471071	 1.7045054517	-1.4211803435	-0.366315
C	 1.4931831048	 2.890095058	-1.1800627752	 0.269769
C	 0.4650232037	 3.4923478422	-2.1354577862	-0.130746
O	 0.9475235265	 4.820426803	-1.8279523713	-0.269911
C	 1.9587126433	 4.3235314965	-0.9291980043	-0.141081
H	-0.0598398538	 0.5208360526	-1.2372848197	 0.085852
H	 1.874299329	 1.9152810202	 0.7688828669	 0.110985
H	 3.2474950512	 1.8363039841	-1.1729361913	 0.246271
H	 0.6131122234	 3.2251146422	-3.1886053065	 0.11888
H	-0.5906611368	 3.3687635248	-1.8671982975	 0.11737
H	 1.8328897492	 4.7049307919	 0.0915716993	 0.117451
H	 2.9756346372	 4.5501603006	-1.2790265546	 0.109337
75.0717	119.9166	153.7781	222.0804	358.0265	379.7351	421.4873	494.9922	568.8906	801.4792	873.9404	919.6445	947.9448	952.8332	998.5468	1017.5726	1032.1722	1052.9774	1074.083	1125.0101	1149.0733	1159.0849	1202.0502	1253.2007	1299.7098	1316.5095	1359.3992	1406.1203	1481.5188	1503.4487	1527.9792	1826.7667	2889.9792	3001.016	3023.8412	3051.3517	3071.2715	3146.1923	3499.441
O=CC1NC11COC1	O=C[C@H]1NC21COC2	
InChI=1S/C5H7NO2/c7-1-4-5(6-4)2-8-3-5/h1,4,6H,2-3H2	InChI=1S/C5H7NO2/c7-1-4-5(6-4)2-8-3-5/h1,4,6H,2-3H2/t4-/m1/s1
