25
gdb 60169	3.2104	0.78232	0.72465	1.2085	89.95	-0.2448	0.0784	0.3232	1723.8897	0.226015	-389.489101	-389.477971	-389.477026	-389.525182	41.932	
C	 0.1045339216	 1.5263738308	-0.0055471787	-0.392316
C	 0.0545363557	-0.0046949495	 0.0798595286	 0.047994
C	 0.6484418049	-0.495741513	 1.4070092676	-0.377075
C	-1.3851992993	-0.5099809175	-0.1448214746	-0.207868
C	-1.5050755417	-2.0169392889	-0.2602460958	-0.028214
C	-1.8703969337	-2.9042595667	 0.9218938929	-0.349222
C	-2.817668002	-2.7464999887	-0.2446394314	 0.382121
C	-4.1403512823	-2.0329206237	-0.0785633227	-0.446573
O	-2.8644720918	-3.8075320721	-1.1705620478	-0.468773
H	 1.1283810443	 1.8971636883	 0.1104661541	 0.108035
H	-0.2766035585	 1.8868915463	-0.9669650425	 0.10844
H	-0.5035353589	 1.9825837009	 0.7852949936	 0.109255
H	 0.6735945618	-0.4070360522	-0.7354805875	 0.071499
H	 0.0627008383	-0.123887154	 2.2569588699	 0.105327
H	 0.6638826038	-1.5871135515	 1.4653314978	 0.1224
H	 1.6752238863	-0.1357598228	 1.5319928399	 0.106058
H	-2.0193747888	-0.1410027601	 0.672496856	 0.087045
H	-1.772797351	-0.0479592772	-1.0632241572	 0.094356
H	-0.794062585	-2.4673249589	-0.9491683136	 0.092649
H	-1.3556066472	-3.853573429	 1.0225100967	 0.107395
H	-2.1248321419	-2.4201541815	 1.8602222382	 0.104308
H	-4.0689411068	-1.1974396243	 0.6220630905	 0.117841
H	-4.4939519652	-1.649765357	-1.0413875601	 0.124657
H	-4.9014608911	-2.7222071462	 0.3085319988	 0.104353
H	-3.4323690712	-4.4930233415	-0.8004296228	 0.276307
51.184	84.7149	118.8743	203.1638	219.2957	230.3621	243.9435	256.2584	305.3564	312.5009	377.82	392.6182	413.5879	430.2914	475.3259	518.8111	701.1526	817.3463	854.9697	858.5215	903.7904	926.2497	931.3761	945.7395	966.5034	974.6819	1006.266	1045.1293	1079.3213	1096.8877	1128.5614	1144.2694	1192.4047	1195.8061	1237.2472	1273.2062	1293.3811	1312.9977	1357.5748	1370.1532	1378.4374	1400.3926	1414.6773	1419.5454	1426.0373	1475.1995	1483.7161	1487.5395	1488.6617	1496.342	1504.4384	1509.8129	1511.7042	2994.6063	3003.9748	3021.358	3024.1117	3027.1236	3041.8819	3084.4068	3085.5917	3090.7104	3097.2306	3114.9665	3120.2954	3123.3741	3136.6034	3212.7812	3785.9094
CC(C)CC1CC1(C)O	CC(C)C[C@H]1C[C@]1(C)O	
InChI=1S/C8H16O/c1-6(2)4-7-5-8(7,3)9/h6-7,9H,4-5H2,1-3H3	InChI=1S/C8H16O/c1-6(2)4-7-5-8(7,3)9/h6-7,9H,4-5H2,1-3H3/t7-,8-/m0/s1
