16
gdb 54549	3.4723	1.49592	1.23989	4.6793	67.78	-0.2537	-0.0019	0.2518	992.559	0.126197	-437.853504	-437.846602	-437.845658	-437.885071	27.287	
O	-0.2565045261	-0.0393094886	 0.4647226768	-0.370797
C	-0.0695333405	 1.2188382496	 0.0290710917	 0.334385
O	 1.0004353416	 1.6448718281	-0.3123897113	-0.339352
C	-1.3334133786	 2.0397795326	 0.0491045405	 0.173557
C	-1.6061362731	 3.2261105276	-0.9104075944	-0.277222
C	-2.5681060065	 3.7257665727	 0.1666138124	-0.095671
C	-3.172682441	 2.4544803793	 0.8201988211	-0.012545
N	-2.6164342655	 1.2692315134	 0.158754435	-0.373448
H	-3.0319195733	 1.0655547544	-0.7532778239	 0.220804
H	-1.2101250154	-0.1178769406	 0.6654023167	 0.30615
C	-1.8342317238	 2.9565454185	 1.2456147231	-0.126879
H	-0.7236381783	 3.8625036625	-0.9917151318	 0.13845
H	-1.9870448687	 2.9779049638	-1.9080810355	 0.095439
H	-3.0450737254	 4.6934209245	 0.2519249093	 0.100497
H	-4.1141610893	 2.4468932581	 1.3538581295	 0.109747
H	-1.4037634462	 3.2209750041	 2.1992980707	 0.116886
85.3082	181.9396	198.003	385.4391	440.6486	497.1061	523.5945	701.9542	717.6751	751.4111	766.5119	784.0023	797.844	807.7729	912.6968	935.4808	956.585	987.4026	1011.539	1020.0532	1037.5287	1071.2302	1090.0194	1124.6259	1133.0294	1165.6383	1172.5154	1251.1258	1280.6893	1310.5378	1344.6994	1360.644	1417.1574	1500.4112	1869.0725	3036.7493	3130.6172	3200.312	3207.1163	3239.7431	3413.9789	3573.7962
[O-]C(=O)C12CC3C([NH2+]1)C23	OC(=O)[C@@]12C[C@H]3[C@@H](N1)[C@@H]23	
InChI=1S/C6H7NO2/c8-5(9)6-1-2-3(6)4(2)7-6/h2-4,7H,1H2,(H,8,9)	InChI=1S/C6H7NO2/c8-5(9)6-1-2-3(6)4(2)7-6/h2-4,7H,1H2,(H,8,9)/t2-,3+,4-,6+/m1/s1
