19
gdb 105418	2.71897	1.21339	1.00658	2.5533	71.47	-0.2532	-0.0517	0.2015	1212.7574	0.158017	-460.139091	-460.129883	-460.128939	-460.173724	33.065	
O	-0.1258535481	 1.6943262175	 0.2330023903	-0.434634
C	 0.0068767557	 0.2990231959	 0.0658949084	-0.127022
C	-1.3448611405	-0.4291228847	-0.0122039301	 0.260082
C	-2.3142494645	 0.0041689432	 1.1094381139	-0.363946
C	-1.7047869922	-0.0276894333	 2.4931656517	 0.138292
O	-0.9060249282	 0.7919296113	 2.8883538524	-0.244092
C	-1.9774202404	-0.4093782558	-1.4265731494	-0.116511
O	-1.5873057001	-1.7776296076	-1.6632613915	-0.26947
C	-1.1746257186	-1.9428091766	-0.2944501224	-0.119429
H	-0.2989180805	 1.8345283674	 1.1749574527	 0.29489
H	 0.5486766358	 0.1298185985	-0.8716387033	 0.116313
H	 0.6107213732	-0.1444572348	 0.8712791939	 0.096739
H	-2.602769408	 1.0417579458	 0.9072195818	 0.147167
H	-3.2138684221	-0.6186241567	 1.0817780904	 0.112747
H	-2.0163520121	-0.8602930461	 3.1591253385	 0.099592
H	-3.0694375559	-0.2895200613	-1.4381906208	 0.094231
H	-1.5315849553	 0.2863812087	-2.1460651107	 0.117644
H	-0.1539230612	-2.3388357229	-0.2152774822	 0.105705
H	-1.8546435171	-2.6005776084	 0.2654231963	 0.091701
65.6603	83.9582	128.0523	154.8218	194.8007	233.2855	316.6887	347.7767	388.0403	481.7681	561.1492	604.8796	676.8297	843.8064	886.3414	897.3506	926.4747	953.6256	995.9443	997.5839	1031.5801	1038.7373	1091.1088	1132.4929	1149.5041	1157.9817	1162.1598	1223.5755	1267.2173	1292.8014	1309.9114	1333.6809	1383.473	1407.9717	1424.9361	1446.8772	1472.8314	1501.1344	1513.2107	1535.8396	1800.3693	2907.4832	2990.9198	2996.1863	3006.2272	3041.1554	3043.3657	3062.7011	3068.9851	3098.2451	3729.859
OCC1(CC=O)COC1	OCC1(CC=O)COC1	
InChI=1S/C6H10O3/c7-2-1-6(3-8)4-9-5-6/h2,8H,1,3-5H2	InChI=1S/C6H10O3/c7-2-1-6(3-8)4-9-5-6/h2,8H,1,3-5H2
