17
gdb 27067	3.03651	1.29838	0.99124	2.3929	77.53	-0.1883	-0.0199	0.1684	1171.9636	0.136738	-418.05041	-418.041705	-418.04076	-418.084004	32.14	
N	-0.15854462	 1.3532897903	-0.2738153952	-0.622829
C	-0.1037855316	-0.0375999227	-0.0873085345	 0.216572
C	-1.0934941837	-1.0028118168	 0.0201661812	 0.215484
C	-2.5724807771	-0.7120651995	 0.0162103664	-0.390322
C	-2.9285222216	-0.2130875963	-1.3696827335	 0.154971
O	-2.9712689622	 0.9560811274	-1.6765017125	-0.255989
C	-0.4365068753	-2.2672842624	 0.1152887836	-0.260232
C	 0.9161645196	-2.0384704927	 0.0896409886	-0.086737
N	 1.1054935168	-0.6807040837	-0.0392991434	-0.262021
H	 0.0162375266	 1.876457046	 0.578820358	 0.241057
H	-1.0592259857	 1.6337202427	-0.6491416884	 0.264963
H	-3.1361547306	-1.621685788	 0.2456144511	 0.113509
H	-2.8377623181	 0.064644754	 0.7421373685	 0.114491
H	-3.0857089758	-1.0063574375	-2.1331133503	 0.087312
H	-0.9156589249	-3.229404461	 0.2189352712	 0.091323
H	 1.7534504236	-2.7129074795	 0.1607256858	 0.117887
H	 1.9864382102	-0.2133676105	-0.1680665067	 0.26056
74.956	103.1196	150.845	211.8537	242.6019	265.0721	339.5884	428.0044	500.8757	505.1453	631.3111	642.3979	669.0985	710.4073	728.6665	815.1478	829.2636	885.9232	914.4654	981.0117	1054.353	1074.2251	1098.3868	1158.5243	1182.3411	1241.1162	1267.419	1296.5538	1337.6192	1415.7517	1422.9589	1465.48	1505.5844	1514.3067	1612.6805	1669.4981	1801.6617	2893.4793	3035.8486	3096.331	3240.3483	3273.6121	3486.8353	3568.779	3677.5251
NC1=C(CC=O)C=CN1	Nc1c(CC=O)cc[nH]1	
InChI=1S/C6H8N2O/c7-6-5(2-4-9)1-3-8-6/h1,3-4,8H,2,7H2	InChI=1S/C6H8N2O/c7-6-5(2-4-9)1-3-8-6/h1,3-4,8H,2,7H2
