21
gdb 60933	2.87964	1.13501	0.96752	2.6951	83.75	-0.2442	-0.0191	0.2252	1302.0971	0.182149	-387.04801	-387.039202	-387.038258	-387.082565	33.028	
C	 0.0454444244	 1.4631718666	 0.1124024866	-0.410672
C	 0.1185358797	-0.0744659023	 0.0665422192	-0.125606
C	 0.8212629485	-0.584923642	 1.3109657369	 0.170979
O	 1.8162989253	-1.2620587373	 1.3223214996	-0.252635
C	-1.2870607491	-0.6842686981	 0.0221229627	 0.063039
C	-2.1688415167	-0.6421831794	-1.2707474154	-0.064093
C	-1.2828352252	-1.7776727157	-1.8637143423	-0.223543
C	-1.5375161285	-2.1762130092	-0.3791327481	-0.06157
C	-3.0208364244	-1.7679998632	-0.6148458204	-0.220356
H	 1.0442697094	 1.9093707136	 0.130520787	 0.127495
H	-0.4829935564	 1.8463825317	-0.7651354544	 0.128754
H	-0.4946541936	 1.8063159062	 1.0022730557	 0.120755
H	 0.7231348542	-0.3924460861	-0.785944924	 0.094658
H	 0.3267388308	-0.2786503407	 2.2654663273	 0.065752
H	-1.8355578657	-0.3809440473	 0.9241156081	 0.062289
H	-2.5396633241	 0.24586762	-1.7854457496	 0.070415
H	-1.7585458251	-2.4111809953	-2.617112279	 0.092672
H	-0.2625257617	-1.5307275261	-2.1588488189	 0.099805
H	-1.1728077105	-3.0651172785	 0.1373901941	 0.079519
H	-3.6050215882	-1.4949005138	 0.2684622087	 0.089703
H	-3.5947920631	-2.3993874732	-1.2976783739	 0.092638
45.6884	53.3809	160.6589	207.0516	212.0722	283.7191	384.0854	399.0341	462.5354	571.5062	607.431	773.2915	803.8836	859.5084	876.0935	896.9663	900.0743	904.5408	950.8574	1005.8572	1009.9856	1019.2927	1032.8069	1066.8689	1108.6645	1112.6841	1127.6343	1146.4921	1156.794	1161.0412	1192.646	1217.2916	1244.1224	1250.2867	1264.6476	1281.7804	1318.9151	1402.7933	1420.7554	1436.122	1496.1261	1499.5391	1504.8203	1543.4453	1834.5975	2831.7429	3012.1047	3033.3911	3049.8305	3063.6964	3085.3761	3095.4884	3104.9018	3105.891	3114.4718	3116.9352	3131.8854
CC(C=O)C1C2CC1C2	C[C@@H](C=O)[C@H]1[C@H]2C[C@@H]1C2	
InChI=1S/C8H12O/c1-5(4-9)8-6-2-7(8)3-6/h4-8H,2-3H2,1H3	InChI=1S/C8H12O/c1-5(4-9)8-6-2-7(8)3-6/h4-8H,2-3H2,1H3/t5-,6-,7+,8-/m0/s1
