18
gdb 32866	3.29728	0.53646	0.47344	5.9278	91.72	-0.1902	-0.1097	0.0805	2292.1387	0.142627	-439.040219	-439.029248	-439.028304	-439.081472	36.232	
C	-0.2231455164	 2.2733134951	-0.1338311723	-0.310099
N	-0.7402311937	 0.9629063839	 0.278255061	-0.478592
H	-0.996361221	 0.9905934352	 1.2607211955	 0.234474
H	-1.5968957671	 0.756680244	-0.2270913361	 0.236091
C	 1.3681611552	-1.7091346988	-0.1020247055	-0.429674
C	 1.0491644409	-2.7226380402	-0.9243205666	 0.451235
C	-0.0123808457	-3.0653700416	-1.7789055665	-0.420178
C	 0.2438612072	-4.3258380252	-2.4061349981	 0.338854
O	-0.3675804639	-5.0290811324	-3.2120140514	-0.431718
C	 1.5544757113	-4.6538502504	-1.8176897672	-0.034959
O	 2.0280343581	-3.7758504256	-0.9864566513	-0.138367
H	 0.6926211522	 2.4914143584	 0.4241828065	 0.12851
H	 0.0403013815	 2.2384472295	-1.1951898963	 0.132118
H	-0.9181576971	 3.1136876605	 0.0151650553	 0.106929
H	 0.6979551855	-0.8597622074	 0.018856867	 0.190142
H	 2.3032209797	-1.7411575089	 0.4434910166	 0.13448
H	-0.8854700001	-2.4489431833	-1.9252878192	 0.120274
H	 2.1675244433	-5.5328935627	-1.9927801815	 0.170481
7.7531	27.1674	29.0628	72.4127	111.1575	118.7932	170.9175	316.3898	327.6809	351.7162	473.092	578.3833	621.9852	625.4102	710.4065	742.2031	792.3876	824.0913	884.626	921.8416	939.2356	973.7098	982.3106	990.2845	1058.6223	1142.5931	1185.8931	1193.0341	1270.341	1300.7177	1354.4851	1447.1992	1460.8188	1464.6913	1498.9181	1518.1482	1663.0659	1683.8444	1726.7915	2986.4719	3072.5434	3109.6563	3110.1618	3200.4227	3245.599	3259.4716	3492.3601	3566.9929
C[NH2+]CC1=CC([O-])=CO1	CN.[CH2]C1=CC(=O)[CH]O1	
InChI=1S/C6H9NO2/c1-7-3-6-2-5(8)4-9-6/h2,4,7-8H,3H2,1H3	InChI=1S/C5H4O2.CH5N/c1-4-2-5(6)3-7-4;1-2/h2-3H,1H2;2H2,1H3
