23
gdb 118678	2.88041	0.86653	0.80612	0.5627	82.41	-0.2473	0.0599	0.3072	1567.3386	0.202678	-425.411482	-425.400158	-425.399214	-425.447928	40.857	
C	-0.1242929569	 0.9266831149	-1.9406471778	-0.425201
C	-0.0267002512	-0.2362337465	-0.9768811814	-0.077163
C	 1.2945581628	-0.6790302488	-0.3601867742	-0.072921
C	 2.6097406107	 0.0031009896	-0.6697118832	-0.408852
C	 0.245350822	-0.0215735993	 0.5025810785	 0.36495
O	 0.5694056116	 1.2839574306	 0.9243624021	-0.469211
C	-0.5006556458	-0.8342929337	 1.5433927842	-0.259357
C	-1.8929454446	-0.2834581594	 1.8656686177	-0.06321
O	-2.5904061066	-1.0696633955	 2.8182305592	-0.41827
H	 0.4957785458	 1.7684142791	-1.6250199883	 0.126336
H	 0.1942768076	 0.6349900708	-2.9472941981	 0.120128
H	-1.1577742159	 1.284627389	-2.0177046416	 0.111691
H	-0.7168933353	-1.0471895696	-1.2001050058	 0.080084
H	 1.3841622933	-1.7536131076	-0.2174849715	 0.079657
H	 2.5186189945	 1.0896337481	-0.6385162935	 0.133201
H	 3.3699769989	-0.2808768333	 0.0658952862	 0.116092
H	 2.9810643544	-0.2869698573	-1.6587779958	 0.111255
H	-0.2108650373	 1.8385775532	 0.8211768405	 0.285746
H	-0.6067685248	-1.8690407168	 1.1995481261	 0.10323
H	 0.098474666	-0.8583187521	 2.4649269479	 0.091008
H	-1.8136997883	 0.7635546445	 2.2009418344	 0.07811
H	-2.5158258742	-0.2900740761	 0.9642257015	 0.111544
H	-2.0800950967	-1.0596968237	 3.6344205529	 0.281152
72.2589	94.7477	114.9708	130.6454	140.0767	209.0413	215.5025	269.2486	273.5462	297.071	304.9511	342.6634	382.6337	508.9842	556.9795	589.298	717.2475	779.5807	796.4638	832.2712	943.8675	991.6866	1006.3356	1035.3069	1038.8685	1052.5384	1080.018	1108.362	1135.4943	1145.4775	1176.9485	1184.7282	1243.7419	1265.7131	1291.8582	1331.6456	1345.2258	1369.9728	1400.2182	1410.786	1417.9575	1421.1656	1458.8793	1473.8214	1487.8744	1494.8777	1504.8669	1515.1302	1515.5487	2969.6765	3008.5862	3029.5284	3035.9538	3060.43	3079.0883	3082.3568	3089.0278	3113.1111	3124.7833	3131.0301	3144.5697	3805.7182	3814.4873
CC1C(C)C1(O)CCO	C[C@H]1[C@@H](C)[C@]1(O)CCO	
InChI=1S/C7H14O2/c1-5-6(2)7(5,9)3-4-8/h5-6,8-9H,3-4H2,1-2H3	InChI=1S/C7H14O2/c1-5-6(2)7(5,9)3-4-8/h5-6,8-9H,3-4H2,1-2H3/t5-,6+,7-
