15
gdb 18748	3.15813	2.27263	1.59553	4.8728	61.36	-0.241	0.0272	0.2682	801.863	0.11954	-399.795792	-399.788791	-399.787847	-399.82705	26.58	
O	-0.0328260565	 1.4379124863	-0.115407079	-0.412055
C	 0.0126232629	 0.0410775963	 0.0199869309	 0.125339
C	 0.2668982701	-0.5656946181	 1.4401212257	-0.280459
C	-1.1160369685	-1.2703831158	 1.3691707879	 0.021032
N	-2.2374022779	-0.4845403141	 1.8820777277	-0.323287
C	-2.4888292388	 0.1876659498	 0.6952352103	 0.438051
O	-3.2685612	 1.0494948246	 0.405190766	-0.350158
C	-1.3900525893	-0.6252653795	-0.0320430646	-0.223805
H	 0.8673302899	 1.7775904763	-0.0850925107	 0.287515
H	 0.6800594051	-0.4119124203	-0.7255034539	 0.078037
H	 1.1202514604	-1.2471232704	 1.4808529641	 0.104116
H	 0.3522432512	 0.172602294	 2.2406998458	 0.104908
H	-1.1728958928	-2.3414102445	 1.563196848	 0.088533
H	-2.4408065395	-0.1909089214	 2.8284035166	 0.2445
H	-1.6763596062	-1.1696709633	-0.9292180348	 0.097732
92.7929	142.5086	257.2954	362.3044	382.2385	413.5864	470.7732	524.168	632.7536	726.255	772.6452	811.4236	868.9095	887.3479	936.7637	998.5399	1003.9497	1046.6956	1107.9598	1126.4758	1144.6096	1163.7558	1191.713	1228.4043	1242.0407	1286.2663	1314.0456	1340.1972	1365.2093	1420.9015	1465.5667	1900.5739	3002.3276	3063.486	3108.9643	3124.9718	3144.8302	3581.2475	3817.4735
OC1CC2NC(=O)C12	O[C@H]1C[C@H]2NC(=O)[C@@H]12	
InChI=1S/C5H7NO2/c7-3-1-2-4(3)5(8)6-2/h2-4,7H,1H2,(H,6,8)	InChI=1S/C5H7NO2/c7-3-1-2-4(3)5(8)6-2/h2-4,7H,1H2,(H,6,8)/t2-,3+,4-/m1/s1
