20
gdb 118935	2.90115	1.00068	0.95076	1.6991	76.8	-0.2385	-0.0248	0.2137	1366.4594	0.16851	-440.266707	-440.256717	-440.255773	-440.302048	35.606	
C	-0.1481952312	 1.3831389199	-0.0458975081	-0.225934
O	-0.0453670788	-0.0200550008	 0.0057864705	-0.243671
C	 0.5923722186	-0.565757425	-1.1274878336	-0.065273
C	 0.6025906053	-2.0856823538	-1.0066986571	 0.154045
C	 1.2020620691	-2.5524878924	 0.3244546935	-0.443739
N	-0.6997709215	-2.7295207685	-1.373226598	-0.346947
C	-0.0732694894	-3.6284030461	-2.377814493	-0.289066
C	 1.2201536087	-2.8179218331	-2.2186232931	 0.35586
O	 2.2642752077	-2.7493681098	-2.794779186	-0.295979
H	 0.8418439457	 1.8634527632	-0.0973146936	 0.105334
H	-0.7364731486	 1.7165974933	-0.9149321949	 0.10855
H	-0.6518206865	 1.7079987087	 0.8677705416	 0.127226
H	 0.0601667	-0.2774511481	-2.0470388635	 0.092056
H	 1.6314059987	-0.2023659043	-1.2075728815	 0.096507
H	 0.5993335237	-2.1704842836	 1.1521365472	 0.145207
H	 1.2365985808	-3.645128651	 0.3810185893	 0.112101
H	 2.2217292484	-2.1733472531	 0.442779446	 0.133942
H	-1.1406505388	-3.2159521329	-0.6011473182	 0.222418
H	 0.051901423	-4.6790432829	-2.0801727783	 0.123792
H	-0.5376300452	-3.6026122196	-3.3697624593	 0.133571
65.7901	97.2831	112.5604	121.9563	210.5184	224.85	235.4908	286.3675	336.7429	365.773	417.6468	531.4335	562.0564	662.0097	748.0066	774.0826	905.6128	936.1636	969.0034	978.9728	996.917	1019.3756	1057.0007	1117.5606	1152.4778	1156.1956	1189.5019	1195.6916	1227.4399	1241.927	1280.0138	1293.923	1372.3272	1397.1788	1417.7045	1474.7182	1477.952	1485.0359	1485.2746	1496.8273	1498.6193	1521.123	1907.4948	2957.6681	2974.04	3004.2243	3008.9719	3017.8724	3038.7969	3066.4138	3109.0727	3114.5742	3126.7327	3544.3679
COCC1(C)NCC1=O	COC[C@@]1(C)NCC1=O	
InChI=1S/C6H11NO2/c1-6(4-9-2)5(8)3-7-6/h7H,3-4H2,1-2H3	InChI=1S/C6H11NO2/c1-6(4-9-2)5(8)3-7-6/h7H,3-4H2,1-2H3/t6-/m1/s1
