17
gdb 20542	4.41041	1.5674	1.24674	3.1409	68.93	-0.2539	0.0157	0.2697	984.4549	0.144273	-360.082076	-360.074344	-360.0734	-360.114855	28.228	
C	 0.101695225	 1.5284412618	 0.0867608857	-0.381924
C	-0.0527779429	 0.0027168533	-0.0517581606	-0.084919
C	-1.5275193924	-0.4202416143	-0.079275565	-0.416324
C	 0.7134320023	-0.4895635519	-1.2473544096	 0.39446
N	 2.0105290345	-0.3239348495	-1.4613917698	-0.323358
C	 2.2104765536	-0.9361056007	-2.6594592882	 0.022738
N	 1.1335553142	-1.4713848237	-3.2090167081	-0.222368
N	 0.1842170537	-1.1731256184	-2.2868889886	-0.247371
H	 1.1576781465	 1.8056610441	 0.0934994318	 0.148089
H	-0.3811749964	 2.0461815626	-0.7491027818	 0.118118
H	-0.3611650762	 1.8753879591	 1.0158062373	 0.112693
H	 0.4198753416	-0.4571958238	 0.8258046356	 0.112461
H	-2.0542264436	 0.0239114281	-0.9323276535	 0.11966
H	-1.6404960092	-1.5084773557	-0.129371422	 0.119699
H	-2.0342598061	-0.0786719931	 0.8272235934	 0.128499
H	 3.1759635887	-0.989964176	-3.1403011499	 0.123704
H	-0.7663522835	-1.465220392	-2.4394000665	 0.276144
30.235	168.4126	206.5041	243.0183	278.4207	322.9352	419.6138	469.4405	573.0259	630.7242	698.5462	763.1055	889.1512	913.6026	932.3438	970.0942	983.294	1033.0074	1100.3046	1119.4799	1138.5265	1184.231	1219.1261	1283.3968	1311.1857	1329.6928	1335.1843	1396.4137	1415.4326	1424.1877	1489.0311	1492.7963	1493.8703	1505.5701	1517.7186	1581.2386	3022.2286	3028.106	3037.8996	3092.7084	3104.5461	3113.1612	3135.3516	3257.9996	3673.7239
CC(C)C1=NC=NN1	CC(C)c1ncn[nH]1	
InChI=1S/C5H9N3/c1-4(2)5-6-3-7-8-5/h3-4H,1-2H3,(H,6,7,8)	InChI=1S/C5H9N3/c1-4(2)5-6-3-7-8-5/h3-4H,1-2H3,(H,6,7,8)
