25
gdb 118496	1.57458	1.40218	0.83443	0.9471	89.62	-0.246	0.0839	0.3299	1526.0535	0.226968	-389.479609	-389.468565	-389.46762	-389.516654	39.976	
C	 0.3018543765	 1.2316030356	 0.8739266051	-0.388797
C	 0.125411785	-0.2768702685	 0.820523862	-0.036263
O	-1.0797223017	-0.5589576058	 0.1307031168	-0.262123
C	-1.3729594885	-1.9436182423	-0.0495739496	 0.09123
C	-2.8164687293	-2.1965308232	 0.4029848497	-0.160938
C	-3.0497095794	-1.8976914598	 1.8849088813	-0.391414
C	-1.1661235477	-2.3560159241	-1.4999863574	 0.018596
C	-1.6022542791	-1.4491435028	-2.6219732107	-0.253343
C	-0.1340469439	-1.7030839258	-2.3817427257	-0.285587
H	 1.2196079513	 1.4896373602	 1.4110445236	 0.113642
H	 0.3610171676	 1.6486294651	-0.1356483032	 0.125803
H	-0.5440509876	 1.6991267793	 1.3861547188	 0.126222
H	 0.9830559006	-0.7456017086	 0.3132686653	 0.090266
H	 0.0851568556	-0.6948081561	 1.8393554669	 0.088186
H	-0.6989952634	-2.5390404191	 0.5872166383	 0.062895
H	-3.4777513562	-1.5776020057	-0.2147039179	 0.105388
H	-3.0695043809	-3.2411501617	 0.1825897893	 0.088778
H	-4.0943930001	-2.0660459736	 2.1636064774	 0.109183
H	-2.4288479333	-2.5368211053	 2.5235581651	 0.106428
H	-2.8029568223	-0.8560855708	 2.1081761961	 0.126732
H	-1.3192813462	-3.4204150701	-1.6606677385	 0.077569
H	-2.0736254399	-1.8890112226	-3.4937324493	 0.103822
H	-1.9769993671	-0.4705862377	-2.3441208915	 0.122415
H	 0.4432664873	-0.8830903176	-1.9717824729	 0.116275
H	 0.4079224226	-2.3285718988	-3.0827324691	 0.105036
51.461	59.5127	89.3906	106.7774	168.2873	180.9985	238.0403	250.5261	269.6783	300.3815	376.7418	433.8104	489.0701	593.7254	766.3382	781.8229	802.3672	819.0735	833.1648	888.569	901.3533	933.3486	986.3075	1013.0271	1044.9716	1062.4171	1083.4184	1090.8659	1102.0976	1129.8857	1140.0948	1161.9763	1183.1456	1186.6293	1200.4924	1230.3998	1290.5216	1293.7187	1315.0815	1372.0824	1381.8535	1396.7171	1402.4829	1406.5917	1441.0239	1456.4875	1477.1437	1482.2283	1496.5745	1499.9771	1501.5794	1510.7575	1529.9252	2962.4121	2976.226	2996.6949	3028.8591	3032.4554	3043.1349	3067.2548	3097.9622	3117.332	3117.4942	3118.851	3133.2243	3136.4464	3142.4411	3218.8552	3232.6796
CCOC(CC)C1CC1	CCO[C@@H](CC)C1CC1	
InChI=1S/C8H16O/c1-3-8(9-4-2)7-5-6-7/h7-8H,3-6H2,1-2H3	InChI=1S/C8H16O/c1-3-8(9-4-2)7-5-6-7/h7-8H,3-6H2,1-2H3/t8-/m0/s1
