19
gdb 56359	1.97021	1.44949	1.2337	0.5394	86.63	-0.2608	0.0317	0.2925	1169.2279	0.155558	-348.668338	-348.658465	-348.657521	-348.702584	37.493	
C	 0.1124259107	 1.4654118476	 0.0035069793	-0.401972
C	-0.0262953435	-0.0825961903	 0.0289212938	-0.150477
C	 0.6138100133	-0.600484307	 1.2477587262	 0.345922
C	 1.1526875313	-0.9970284752	 2.2459294328	-0.486034
C	-1.4546165005	-0.4420877458	 0.0421499934	 0.363224
C	-2.6249176444	-0.7122637243	 0.0191081382	-0.481804
C	 0.6197718122	-0.6669994403	-1.2438431206	 0.027983
C	 2.0999771655	-0.9250806525	-1.3369150174	-0.290015
C	 1.1250393656	-2.0790432869	-1.3157447777	-0.275295
H	 1.1702425006	 1.7385550749	-0.0137364665	 0.12868
H	-0.3747384044	 1.8637120311	-0.8904911432	 0.123896
H	-0.3565675635	 1.9080887554	 0.8845846194	 0.132879
H	 1.6141541053	-1.3534003657	 3.1337185091	 0.199968
H	-3.6569649725	-0.9622026804	 0.0109594317	 0.196547
H	 0.1366716853	-0.2824570074	-2.1370774224	 0.094103
H	 2.601123511	-0.6787206967	-2.2663598697	 0.109976
H	 2.6967941133	-0.7689722826	-0.4452583923	 0.124298
H	 1.0852092851	-2.6736216441	-0.4100126185	 0.127508
H	 0.9515186997	-2.6350570698	-2.2300685156	 0.110612
75.6737	127.5802	145.5366	157.5501	221.894	242.1078	253.2555	340.0087	400.8382	471.3605	491.2254	562.4969	590.9828	629.1543	632.8054	638.1001	643.597	648.6469	784.2626	831.0081	862.4179	928.3411	952.4972	965.87	1062.091	1068.4971	1083.1176	1088.2867	1138.8425	1178.2912	1198.5858	1226.7174	1249.6871	1378.5966	1403.1022	1462.0074	1485.405	1491.1989	1501.5322	2232.8688	2238.7249	3049.0558	3129.5412	3136.7906	3138.2886	3139.3444	3152.8211	3217.8774	3231.192	3500.1441	3502.3205
CC(C#C)(C#C)C1CC1	CC(C#C)(C#C)C1CC1	
InChI=1S/C9H10/c1-4-9(3,5-2)8-6-7-8/h1-2,8H,6-7H2,3H3	InChI=1S/C9H10/c1-4-9(3,5-2)8-6-7-8/h1-2,8H,6-7H2,3H3
