18
gdb 76565	2.91809	1.2585	1.21792	1.9632	73.18	-0.2259	0.0229	0.2488	1116.4033	0.147677	-439.079647	-439.071105	-439.07016	-439.112797	31.849	
C	-0.1108677773	 1.515057324	 0.0515709219	-0.426649
C	 0.0439525708	 0.011181056	 0.0651897819	-0.113477
C	 1.3886640695	-0.6428727821	-0.1935965405	 0.016568
O	 2.5373465439	 0.1494264298	-0.300551407	-0.421199
C	 0.7858049191	-0.697396734	 1.1820026823	 0.289291
C	 1.4329213373	 0.0167120322	 2.3730506829	-0.173412
O	 1.227851775	-0.9189980696	 3.4630279274	-0.225193
C	 0.5722190684	-1.9701864359	 2.9178723373	 0.101062
N	 0.2774831316	-1.9584011279	 1.6832958257	-0.306055
H	 0.8224272274	 2.0152551383	 0.324106822	 0.127233
H	-0.3956210596	 1.8672440836	-0.9461339836	 0.117925
H	-0.8891622947	 1.8430037378	 0.7488901613	 0.12454
H	-0.807677088	-0.5499879227	-0.3092584906	 0.09957
H	 1.4062896665	-1.5720940017	-0.7605119238	 0.09969
H	 2.5393105549	 0.565317601	-1.1692584079	 0.293507
H	 2.5055272161	 0.179841549	 2.2440855307	 0.139003
H	 0.9548305537	 0.9628365444	 2.6438872866	 0.117489
H	 0.3439356156	-2.7692650021	 3.6135755133	 0.140107
88.4316	154.3348	179.3574	192.7689	239.9159	253.4489	305.1082	422.3591	455.7779	553.6617	584.3536	592.6376	793.6652	819.8718	873.4188	889.732	951.1092	961.5319	972.3129	1019.4203	1053.9469	1079.8665	1098.7522	1122.5617	1149.8324	1163.6378	1207.9822	1212.0435	1267.3091	1297.481	1331.925	1368.0167	1379.6597	1413.5046	1464.7279	1497.9808	1506.0073	1524.4709	1691.7319	3031.8343	3053.0331	3088.8078	3105.1285	3112.346	3118.7655	3153.1221	3221.8209	3803.3867
CC1C(O)C11COC=N1	C[C@H]1[C@@H](O)[C@]21COC=N2	
InChI=1S/C6H9NO2/c1-4-5(8)6(4)2-9-3-7-6/h3-5,8H,2H2,1H3	InChI=1S/C6H9NO2/c1-4-5(8)6(4)2-9-3-7-6/h3-5,8H,2H2,1H3/t4-,5+,6+/m0/s1
