21
gdb 77942	3.02819	1.34787	1.07268	1.5489	83.88	-0.2493	0.0778	0.3271	1193.024	0.182052	-387.010938	-387.002186	-387.001241	-387.043867	34.484	
C	-0.0494198148	 1.5919747147	-0.009374243	-0.479504
C	 0.046186745	 0.06644558	 0.0371826537	 0.061937
C	 1.1784721661	-0.724293206	-0.7057113485	-0.208952
C	 2.1588357646	-0.4073918995	 0.487388236	 0.184703
O	 2.78491678	 0.8371346578	 0.6664923751	-0.457571
C	 0.7953138997	-0.7523273284	 1.1579716131	-0.227806
C	 0.7546194074	-1.9252638572	 0.1587135773	 0.483112
C	-0.2328955021	-3.0154118418	-0.0582411538	-0.374741
C	 1.2341188962	-3.3312609256	 0.2412313216	-0.379891
H	 0.903310112	 2.088276242	-0.2019026934	 0.128452
H	-0.7225546014	 1.8903102718	-0.8203517407	 0.121024
H	-0.4750608476	 1.9933707566	 0.9183487082	 0.115618
H	-0.9470634911	-0.3535216716	-0.1520848157	 0.073203
H	 1.4007721517	-0.7249632027	-1.7741768979	 0.069584
H	 2.9384898966	-1.1631484592	 0.6147844327	 0.0845
H	 2.164007512	 1.4519920565	 1.0622194165	 0.28797
H	 0.5672078114	-0.7884713554	 2.2261357852	 0.066159
H	-0.9605481728	-3.2278017792	 0.7191252157	 0.112118
H	-0.593498732	-3.2040979738	-1.0647897883	 0.112909
H	 1.8390582473	-3.7273995472	-0.5686740635	 0.114093
H	 1.4689320919	-3.750772192	 1.2147503495	 0.113083
114.6144	166.4513	172.5266	199.6834	224.5551	296.3082	348.1238	394.9629	427.9424	476.6168	563.3146	706.3049	719.8632	778.882	794.7808	807.4226	877.4027	898.4847	927.1667	945.6712	993.0865	1015.2289	1046.3971	1060.8645	1070.2747	1081.4681	1095.0786	1112.9789	1115.6719	1132.8111	1176.5228	1179.6951	1194.8191	1213.5816	1243.4706	1276.4467	1302.4453	1403.1449	1409.6548	1419.5333	1460.732	1463.3936	1495.909	1521.1183	1525.445	3029.7134	3046.643	3073.1086	3084.0335	3085.5489	3102.148	3118.2023	3121.8848	3125.9367	3194.3075	3208.4436	3870.6309
CC1C2C(O)C1C21CC1	C[C@H]1[C@H]2[C@@H](O)[C@@H]1C12CC1	
InChI=1S/C8H12O/c1-4-5-7(9)6(4)8(5)2-3-8/h4-7,9H,2-3H2,1H3	InChI=1S/C8H12O/c1-4-5-7(9)6(4)8(5)2-3-8/h4-7,9H,2-3H2,1H3/t4-,5-,6+,7+
