22
gdb 86812	4.18453	0.72374	0.71403	3.2388	83.32	-0.2424	0.0354	0.2778	1697.4864	0.193264	-404.384817	-404.374511	-404.373567	-404.421957	37.304	
C	 0.1382659328	 1.718903506	-0.0287288469	-0.407022
C	 0.0896554373	 0.2020237959	 0.0621223954	 0.062293
C	 0.9924567778	-0.6435931222	-0.8814157886	-0.269081
C	 1.2312326305	-1.6292777486	 0.2934727405	 0.075712
C	 2.6098150081	-2.2467861622	 0.4706648099	-0.35308
C	 2.6684762058	-3.2054518664	 1.6609504307	 0.418191
N	 3.9022258834	-3.3371733155	 2.233977068	-0.523507
O	 1.6977445155	-3.8144308436	 2.0676719421	-0.362047
C	 0.7678722884	-0.5103637786	 1.2667401329	-0.240131
H	 1.1682414695	 2.0853050628	 0.0549509583	 0.106017
H	-0.2644409151	 2.0752722772	-0.9838444783	 0.111669
H	-0.4461541689	 2.1855044862	 0.7724842818	 0.113135
H	-0.947746721	-0.1410429923	-0.0253671859	 0.072384
H	 0.5544031613	-1.0372127099	-1.8028412028	 0.092183
H	 1.9083520643	-0.0973568823	-1.1386549978	 0.08618
H	 0.4913909154	-2.4334902649	 0.2814883951	 0.095996
H	 2.8751606736	-2.8283306492	-0.4241494817	 0.124518
H	 3.3756526439	-1.466895677	 0.5700997297	 0.092667
H	 4.7199456502	-2.8977974065	 1.8500621275	 0.255718
H	 4.0188717355	-4.0290063451	 2.9563279881	 0.25816
H	 1.6195762075	 0.0736098225	 1.6375457372	 0.084484
H	 0.1466674239	-0.7995341262	 2.1170779749	 0.10556
17.3441	54.6356	83.0546	152.6011	158.9934	222.3518	277.9319	342.9399	357.2028	394.1083	441.9541	509.4363	573.2951	631.4981	674.0974	785.3155	812.6016	853.7249	882.2728	894.7175	930.6074	957.3698	979.3579	1051.8927	1074.1274	1086.9053	1133.0618	1140.8046	1162.5095	1218.6417	1229.4815	1249.0222	1262.7402	1276.9781	1281.4867	1309.0001	1359.8547	1376.9843	1407.8842	1415.2137	1460.0371	1475.7989	1493.7479	1496.1161	1503.2386	1615.8703	1795.505	3008.8194	3019.1325	3027.2332	3029.7562	3038.8661	3047.1979	3079.1735	3086.4726	3087.805	3095.0547	3109.6414	3600.9552	3738.688
CC1CC(CC(N)=O)C1	C[C@H]1C[C@@H](CC(=O)N)C1	
InChI=1S/C7H13NO/c1-5-2-6(3-5)4-7(8)9/h5-6H,2-4H2,1H3,(H2,8,9)	InChI=1S/C7H13NO/c1-5-2-6(3-5)4-7(8)9/h5-6H,2-4H2,1H3,(H2,8,9)/t5-,6+
