19
gdb 111367	2.14156	1.69974	1.14369	3.4307	79.53	-0.2285	0.0131	0.2415	1126.8478	0.159251	-382.035894	-382.02722	-382.026276	-382.069319	32.506	
C	 0.0537755234	 1.6022586999	 0.0219677374	-0.386011
C	 0.1496642054	 0.084099972	 0.1591786693	-0.134444
N	 0.6022862119	-0.5390330645	-1.0813469614	-0.091475
C	 0.9274136679	-1.9634422188	-1.0921520053	 0.002316
C	-0.27345376	-2.8660824519	-0.9968049479	-0.304577
C	 0.0575229904	-2.2050761938	-2.311192635	-0.08633
C	-0.3196170068	-0.7152672646	-2.2527610322	-0.126403
C	-1.7399253992	-0.4214338988	-2.0440002001	 0.287528
N	-2.8563045823	-0.1834417639	-1.8577175453	-0.342291
H	 1.0141515319	 2.0214131823	-0.2913988818	 0.122033
H	-0.7029089642	 1.8864859631	-0.7158068793	 0.132213
H	-0.2327672626	 2.0538429148	 0.9764637048	 0.118478
H	 0.8982819563	-0.1767564653	 0.9165581807	 0.105932
H	-0.8132048625	-0.3203059417	 0.512394229	 0.102247
H	 1.9392751558	-2.2907531652	-0.8808897712	 0.103599
H	-0.0496140073	-3.927653004	-0.9621277978	 0.122951
H	-1.1586051674	-2.5743930546	-0.4393790934	 0.133579
H	 0.27105499	-2.7441091032	-3.223009455	 0.110284
H	 0.0319851093	-0.1369653118	-3.1133681656	 0.13037
90.8427	115.7149	143.6857	174.1385	220.6308	290.7861	370.8629	382.7037	488.2024	566.0956	590.3589	652.7705	788.8581	798.444	808.5313	821.7048	927.5217	951.4766	979.5245	985.9293	1038.1985	1047.4333	1058.9928	1078.1195	1086.3989	1122.5808	1176.4848	1187.4433	1220.528	1253.955	1280.4579	1315.507	1330.1769	1357.3828	1392.6865	1413.3809	1481.0386	1488.4356	1493.8698	1508.9568	2345.0594	2969.3215	3041.972	3052.2431	3053.4543	3113.078	3120.2017	3124.6313	3172.7436	3209.652	3220.0086
CCN1C2CC2C1C#N	CCN1[C@H]2C[C@H]2[C@H]1C#N	
InChI=1S/C7H10N2/c1-2-9-6-3-5(6)7(9)4-8/h5-7H,2-3H2,1H3	InChI=1S/C7H10N2/c1-2-9-6-3-5(6)7(9)4-8/h5-7H,2-3H2,1H3/t5-,6+,7-/m1/s1
