17
gdb 15164	7.70238	0.69201	0.66681	2.824	73.77	-0.2476	0.0308	0.2784	1658.6441	0.141489	-363.793819	-363.784811	-363.783867	-363.829493	30.944	
O	 0.3517691478	 0.8693214901	 0.6433340339	-0.402081
C	-0.062452243	 0.0104555294	-0.4109102062	-0.191209
C	-1.4284869432	-0.4886274648	-0.2568298791	 0.079985
C	-2.5681709743	-0.8539337237	-0.1178958146	 0.038485
C	-3.9349070519	-1.337369185	 0.0608559714	-0.389706
C	-4.0100960198	-2.8270909519	 0.3621705024	 0.04999
C	-5.189861048	-3.6085760674	-0.0797025149	-0.248869
N	-3.8746625198	-3.813334927	-0.7152367504	-0.304939
H	-0.3213773259	 1.551030343	 0.7390729595	 0.286335
H	 0.0365862259	 0.5044036371	-1.3910596813	 0.115742
H	 0.6456583518	-0.8256747131	-0.4077186088	 0.142186
H	-4.4121511442	-0.7806366627	 0.8790663844	 0.137263
H	-4.5291360045	-1.1212994294	-0.8381755653	 0.121021
H	-3.5034559522	-3.1189356526	 1.27933617	 0.104852
H	-5.548693442	-4.4451584408	 0.512838519	 0.121741
H	-5.9646222316	-3.0857993457	-0.6361499518	 0.109179
H	-3.8450565152	-3.3410313654	-1.6162665182	 0.230026
20.1619	55.6445	98.3993	132.6454	234.8262	300.9065	332.1902	364.0464	384.5803	499.4682	564.6111	771.867	793.8705	829.3157	922.7782	935.8082	975.8075	988.4734	1044.5333	1049.8609	1123.8141	1148.4749	1155.1659	1176.6052	1214.989	1245.8303	1266.0878	1310.8055	1322.3347	1358.3447	1417.9924	1419.872	1460.4685	1492.9321	1513.5698	2362.2701	2973.3972	3005.176	3037.1638	3062.6371	3105.3148	3135.5035	3190.4545	3490.9161	3816.6697
OCC#CCC1CN1	OCC#CC[C@H]1CN1	
InChI=1S/C6H9NO/c8-4-2-1-3-6-5-7-6/h6-8H,3-5H2	InChI=1S/C6H9NO/c8-4-2-1-3-6-5-7-6/h6-8H,3-5H2/t6-/m0/s1
