16
gdb 43906	2.91945	1.41617	1.12119	3.4626	76.37	-0.2453	0.0157	0.2611	1085.8354	0.123876	-400.721071	-400.713129	-400.712185	-400.753541	30.635	
O	-0.0262490458	 0.0183251097	 0.1421078635	-0.358617
C	 0.0158841664	 1.2114079921	 0.0168817327	 0.43253
N	-0.9705538096	 2.1765456729	-0.057182039	-0.370486
C	-0.0611970561	 3.3296028122	-0.0606208415	 0.192085
C	 0.3729168741	 3.812538777	 1.3662004119	-0.274026
C	 1.53201693	 2.7744978659	 1.3767165749	-0.2297
C	 1.123835084	 2.280816279	-0.0421011396	-0.257429
C	-0.284271679	 4.3157718277	-1.0880918311	 0.230793
C	-0.459901213	 5.1630280861	-1.9231711089	-0.399645
H	-1.9509600044	 2.127333383	 0.1871928844	 0.249782
H	 0.7179652797	 4.8476453431	 1.3684021235	 0.122573
H	-0.4014392727	 3.6945257422	 2.126797889	 0.10968
H	 2.5184160082	 3.240454905	 1.3927528928	 0.119119
H	 1.499002248	 2.0085553319	 2.1537476183	 0.125412
H	 1.8747583974	 2.2089909579	-0.8251429652	 0.110143
H	-0.6177175874	 5.9015944743	-2.6700437058	 0.197787
89.1377	140.7594	182.6381	214.8043	367.3189	426.1516	456.3997	496.0583	518.2684	578.8502	626.8855	654.14	675.2498	733.0501	753.3304	803.5006	904.9849	927.7315	952.0331	986.0512	1029.2912	1060.0191	1092.0501	1128.9984	1192.9084	1210.6841	1230.3614	1259.7031	1281.2149	1295.2424	1356.637	1472.1225	1493.2549	1894.2045	2236.1463	3074.6668	3080.8825	3122.8514	3140.5479	3154.309	3500.0582	3581.9465
O=C1NC2(CCC12)C#C	O=C1N[C@]2(CC[C@@H]12)C#C	
InChI=1S/C7H7NO/c1-2-7-4-3-5(7)6(9)8-7/h1,5H,3-4H2,(H,8,9)	InChI=1S/C7H7NO/c1-2-7-4-3-5(7)6(9)8-7/h1,5H,3-4H2,(H,8,9)/t5-,7-/m0/s1
