19
gdb 40309	2.90688	1.26047	1.02638	2.3899	74.84	-0.2638	0.0807	0.3445	1203.0914	0.158208	-422.95679	-422.948167	-422.947223	-422.991416	31.919	
C	 0.1733147701	 1.327952378	-0.1505377132	-0.186767
O	 1.0522534977	 0.2155248359	-0.3069066684	-0.242589
C	-0.2935777924	-0.0350554231	 0.1263661092	 0.004681
C	-0.4813727389	-0.6254814742	 1.494149858	 0.316995
C	-0.1306403857	 0.1633422581	 2.7331888897	-0.309172
C	-1.5746383586	-0.0534213216	 2.3647014862	-0.309194
C	-0.1879226328	-2.0981044513	 1.4948166092	 0.004789
C	-0.8548589088	-3.0937250291	 2.3412203462	-0.186816
O	-1.1930191493	-2.9733462714	 0.9608172026	-0.242525
H	 0.4177813546	 2.0067073661	 0.6642415287	 0.113052
H	-0.135939633	 1.8170352218	-1.073853169	 0.115252
H	-0.9075435538	-0.5152697973	-0.6374870644	 0.108356
H	 0.266499785	-0.3997226954	 3.5708020953	 0.117909
H	 0.2942463648	 1.1543426628	 2.6287188956	 0.120743
H	-2.1249355763	 0.7898866086	 1.9617570759	 0.117908
H	-2.1755391993	-0.7218096351	 2.969457978	 0.120744
H	 0.8180180051	-2.3365905895	 1.1451663179	 0.108343
H	-0.3171938383	-4.000506927	 2.6169837058	 0.115234
H	-1.6322661201	-2.7947812761	 3.0416479668	 0.113055
34.0695	50.1717	170.8331	196.4765	273.7586	282.8891	342.5513	439.6194	488.4256	602.878	654.6263	772.6891	827.5421	845.3869	855.1264	909.5061	927.4376	957.8234	959.0876	967.8509	1051.4796	1055.6299	1071.8511	1084.5902	1102.0649	1104.4987	1157.7912	1159.252	1175.2756	1176.2653	1186.1994	1246.1552	1289.4891	1308.9168	1358.5745	1427.7386	1449.4602	1468.7776	1508.5293	1533.9765	1534.576	3083.4195	3084.0359	3098.92	3099.9161	3140.9142	3143.3146	3167.3429	3167.542	3218.6899	3231.4645
C1OC1C1(CC1)C1CO1	C1O[C@H]1C1(CC1)[C@H]1CO1	
InChI=1S/C7H10O2/c1-2-7(1,5-3-8-5)6-4-9-6/h5-6H,1-4H2	InChI=1S/C7H10O2/c1-2-7(1,5-3-8-5)6-4-9-6/h5-6H,1-4H2/t5-,6-/m1/s1
