15
gdb 26886	3.07032	1.42563	0.9795	3.441	74.28	-0.2148	-0.0459	0.1689	1137.4085	0.112053	-457.840014	-457.831798	-457.830854	-457.87395	30.079	
C	-0.0073745504	 1.5768701325	 0.0231859345	-0.502222
C	 0.009494773	 0.0710599355	 0.0040951017	 0.050119
C	-0.0168244871	-0.651057859	-1.1520869786	 0.437833
O	-0.0603367748	-0.0907742978	-2.3676154872	-0.394909
O	-0.0022434066	-1.9809183378	-1.1989201116	-0.27489
C	 0.0441856431	-2.8211087316	-0.0260614283	 0.424589
O	 0.0525395695	-4.0024473817	-0.2242982271	-0.338382
C	 0.0724876575	-2.0730023843	 1.1965913879	-0.29488
C	 0.0554666094	-0.7103951758	 1.1915906128	-0.071046
H	 0.8985688492	 1.9804568671	 0.4898478902	 0.132437
H	-0.0706631583	 1.9813944304	-0.9880460646	 0.146523
H	-0.863393992	 1.9575922663	 0.5917615676	 0.131963
H	-0.0738077152	-0.8038218449	-3.0202058235	 0.315766
H	 0.1072867632	-2.6501910606	 2.1106241935	 0.121595
H	 0.0776612796	-0.1824255483	 2.1417385427	 0.115505
22.8728	108.9291	197.0032	282.6723	284.5232	349.8324	418.4895	442.0596	462.9213	514.1784	582.9422	696.6088	724.3857	749.6536	772.646	824.2684	848.8094	997.4617	997.9956	1063.8717	1069.634	1130.7935	1214.5381	1258.2725	1311.5485	1397.8985	1424.4765	1457.1242	1491.9687	1500.3019	1578.1803	1712.5706	1864.68	3030.4807	3078.3623	3140.2796	3166.0474	3228.2681	3787.9
CC1=C(O)OC(=O)C=C1	Cc1c(O)oc(=O)cc1	
InChI=1S/C6H6O3/c1-4-2-3-5(7)9-6(4)8/h2-3,8H,1H3	InChI=1S/C6H6O3/c1-4-2-3-5(7)9-6(4)8/h2-3,8H,1H3
