19
gdb 76448	2.99808	0.97309	0.91186	3.9028	72.46	-0.2308	-0.0173	0.2135	1359.3906	0.155213	-460.15023	-460.13992	-460.138976	-460.186133	36.686	
C	 0.0054245872	 1.479734184	-0.2768709306	-0.420117
C	 0.0271141063	-0.0041872015	 0.0124495278	-0.124207
C	 1.3242097692	-0.7995177934	-0.0074141236	-0.010227
O	 2.5507707013	-0.1261286742	-0.1227879884	-0.429375
C	 0.6241462079	-0.5427010271	 1.3050242263	 0.381015
O	 1.2622616261	 0.3570744471	 2.1653474248	-0.473618
C	-0.0636184729	-1.6558779965	 2.0687212911	-0.34022
C	 0.9231684521	-2.5510515474	 2.7933228075	 0.162626
O	 0.861121129	-3.7541244779	 2.810578953	-0.246327
H	 0.798843678	 2.003118477	 0.2601876826	 0.125492
H	 0.1160631353	 1.6836547422	-1.348331957	 0.111621
H	-0.9455519177	 1.9164052428	 0.0431189802	 0.129932
H	-0.8314387924	-0.5542850576	-0.3656108397	 0.089931
H	 1.3210011574	-1.8022758221	-0.4318111546	 0.102391
H	 2.5681045095	 0.355933202	-0.9560654736	 0.300683
H	 2.118754633	 0.5561661288	 1.7593683463	 0.297375
H	-0.7176059687	-1.1958677144	 2.8237012925	 0.134277
H	-0.6855971391	-2.2741631278	 1.4164067672	 0.118353
H	 1.7315160582	-2.0039711944	 3.3242193383	 0.090395
49.9769	74.9933	110.6761	133.0963	183.5437	232.7376	253.2949	284.9506	297.8365	356.9237	443.1837	489.8568	547.0362	590.4634	630.6045	708.7701	796.0654	830.1595	857.8396	976.3759	1000.7466	1024.3683	1060.2849	1079.5953	1104.6881	1141.9109	1157.5353	1199.3098	1219.7025	1274.0163	1306.3778	1323.9054	1362.7266	1383.2233	1413.7938	1421.1424	1444.2705	1466.4834	1492.7772	1504.1105	1830.8007	2908.877	3016.42	3033.557	3093.4674	3104.7303	3113.219	3124.971	3141.004	3723.9422	3810.3815
CC1C(O)C1(O)CC=O	C[C@H]1[C@@H](O)[C@]1(O)CC=O	
InChI=1S/C6H10O3/c1-4-5(8)6(4,9)2-3-7/h3-5,8-9H,2H2,1H3	InChI=1S/C6H10O3/c1-4-5(8)6(4,9)2-3-7/h3-5,8-9H,2H2,1H3/t4-,5+,6-/m0/s1
