19
gdb 6612	4.28425	1.42895	1.32521	2.1509	71.84	-0.2384	0.0703	0.3087	1001.0534	0.164499	-365.025982	-365.017797	-365.016853	-365.058221	31.984	
C	-0.2142023466	 1.5358176545	-0.0566732953	-0.450374
C	-0.018652783	 0.0245827104	-0.0190154294	 0.423238
O	-1.2445118177	-0.6616861458	-0.1845432731	-0.478129
C	 1.1744049176	-0.4741646399	-0.9092958246	-0.368411
C	 2.0019370012	-0.6076226636	 0.3738897491	 0.36781
C	 3.2682706197	-1.324694845	 0.608453116	-0.312301
N	 3.2170712654	 0.1551436186	 0.6721993382	-0.359284
C	 0.7441635104	-0.4811012222	 1.2371860639	-0.318349
H	 0.7275580512	 2.0608595677	 0.1297983141	 0.130108
H	-0.5859922819	 1.8564348837	-1.0386035336	 0.102301
H	-0.938373887	 1.8432264098	 0.7041643482	 0.125105
H	-1.6925463596	-0.2948578222	-0.9546017942	 0.272988
H	 0.9379210229	-1.440543665	-1.3636622544	 0.106926
H	 1.5482644641	 0.2102281862	-1.6784275087	 0.089211
H	 3.4517631983	-1.8142002382	 1.5616375281	 0.117601
H	 3.7590813995	-1.7936211065	-0.2413581721	 0.108455
H	 3.6006397904	 0.5418117337	-0.1879288263	 0.224853
H	 0.8038004207	 0.1958059302	 2.0923132244	 0.107068
H	 0.3519003944	-1.4504013364	 1.5559972397	 0.111186
59.1067	239.2538	256.6497	275.1234	293.9871	318.0612	357.6674	366.4215	440.4234	467.846	526.9394	702.9691	804.4902	833.4125	862.5896	893.1823	901.9148	928.8901	962.5219	975.2469	984.5837	1041.3208	1072.0637	1107.5879	1123.8454	1168.4447	1170.9911	1216.1395	1243.5862	1268.6748	1292.3496	1293.8232	1377.1161	1406.8116	1417.5982	1457.12	1479.6987	1492.0226	1497.7386	1516.3364	3018.7762	3038.598	3063.4128	3088.9009	3099.2855	3100.1483	3114.4502	3123.6788	3182.893	3481.948	3799.9982
CC1(O)CC2(CN2)C1	C[C@@]1(O)C[C@]2(CN2)C1	
InChI=1S/C6H11NO/c1-5(8)2-6(3-5)4-7-6/h7-8H,2-4H2,1H3	InChI=1S/C6H11NO/c1-5(8)2-6(3-5)4-7-6/h7-8H,2-4H2,1H3/t5-,6-
