17
gdb 56793	2.9961	1.21189	0.95538	3.9944	73.59	-0.2612	0.0013	0.2625	1239.8949	0.136651	-418.042322	-418.033503	-418.032559	-418.077016	30.799	
C	-0.2360335884	 1.5958854365	-0.0269537995	-0.383828
C	 0.0924868699	 0.0936080745	-0.018152198	-0.233564
C	-1.117863052	-0.7171067692	 0.1791434384	 0.27779
N	-2.084435298	-1.3270970451	 0.3460264907	-0.319289
C	 0.8117165185	-0.3495319579	-1.2713677009	 0.436394
N	 1.0713267541	 0.3783569891	-2.2749235508	-0.311068
C	 1.8014410635	-0.4783301635	-3.2246413933	-0.188789
C	 1.846432159	-1.8718376116	-2.5438803847	-0.113211
O	 1.2126109547	-1.6453180423	-1.260229965	-0.254494
H	 0.6849886566	 2.170605124	-0.1370254747	 0.141349
H	-0.8899408656	 1.8400819886	-0.8653531884	 0.155316
H	-0.7297546849	 1.8769090872	 0.9057054043	 0.133658
H	 0.7596993171	-0.1336435411	 0.8242917113	 0.151692
H	 1.2787114474	-0.4966436094	-4.1856227389	 0.127457
H	 2.7987739642	-0.0632217542	-3.4032612881	 0.123418
H	 1.2729391467	-2.6363091116	-3.0744208841	 0.130922
H	 2.8571194271	-2.2444716639	-2.3618370684	 0.126245
38.5383	90.2448	117.2385	183.6998	209.4591	226.9114	285.9988	404.834	463.9207	570.7806	607.6441	752.0799	771.4237	831.1443	856.7105	922.6969	975.6479	991.3172	1004.4739	1038.6989	1100.7832	1120.0045	1132.4266	1213.9758	1217.5522	1247.7754	1308.3994	1316.3948	1352.2658	1392.6643	1415.8336	1487.0297	1493.5077	1501.4274	1525.3469	1744.1624	2363.7611	3029.5443	3048.2951	3064.6981	3066.1925	3080.6258	3116.0568	3146.4714	3154.3609
CC(C#N)C1=NCCO1	C[C@@H](C#N)C1=NCCO1	
InChI=1S/C6H8N2O/c1-5(4-7)6-8-2-3-9-6/h5H,2-3H2,1H3	InChI=1S/C6H8N2O/c1-5(4-7)6-8-2-3-9-6/h5H,2-3H2,1H3/t5-/m0/s1
