14
gdb 48696	2.7512	1.34213	1.04959	5.8331	68.29	-0.2683	-0.0473	0.221	1109.257	0.099433	-436.651349	-436.643551	-436.642607	-436.684211	28.246	
O	-0.045424947	-0.0190066979	 0.021785959	-0.247878
C	 0.0215898174	 1.1749687487	-0.1086316702	 0.07036
C	 1.2723352688	 1.9517485713	-0.0907134703	 0.378681
C	 1.3878461713	 3.387016557	 0.3673312915	-0.348463
C	 1.7905564857	 3.0432381043	-1.033015333	-0.163442
C	 3.0940970947	 2.2343587898	-0.9934369779	-0.052395
O	 2.5442238031	 1.3070169668	-0.0225618469	-0.290907
C	 3.4271380012	 1.5691300383	-2.2541230119	 0.303121
N	 3.6968003034	 1.0745582821	-3.2623101174	-0.30411
H	-0.8796515515	 1.8145508106	-0.2491198244	 0.08136
H	 0.4536637202	 3.9339361584	 0.447742264	 0.14462
H	 2.1300331944	 3.6144186041	 1.1264352434	 0.143852
H	 1.3379695272	 3.4583485965	-1.9220988688	 0.144561
H	 3.978859681	 2.75234396	-0.6071181972	 0.140639
69.9804	140.888	180.6914	198.7856	281.6377	376.8562	418.0943	494.423	500.6572	568.4013	749.1303	787.7649	854.1416	868.7174	931.6042	956.4411	978.3648	994.8574	1041.5969	1051.7083	1074.9744	1085.3427	1198.2451	1253.3213	1278.037	1353.0528	1363.4216	1433.3556	1471.9066	1823.5332	2365.8325	2871.8368	3056.0077	3126.3304	3218.957	3227.0857
O=CC12CC1C(O2)C#N	O=C[C@]12C[C@H]1[C@@H](O2)C#N	
InChI=1S/C6H5NO2/c7-2-5-4-1-6(4,3-8)9-5/h3-5H,1H2	InChI=1S/C6H5NO2/c7-2-5-4-1-6(4,3-8)9-5/h3-5H,1H2/t4-,5-,6+/m0/s1
