21
gdb 41801	2.28788	1.94917	1.47823	1.2404	82.37	-0.236	0.0213	0.2572	999.0455	0.186459	-387.101522	-387.094106	-387.093161	-387.133429	30.288	
C	 0.1705726122	 1.7087976955	 0.1324673325	-0.24442
C	 1.5552419717	 2.0238857832	-0.4959927191	-0.206134
C	 2.2675934281	 0.644122927	-0.6171764675	-0.051481
C	 1.0877496485	-0.2885405292	-0.9363598239	-0.227421
C	-0.0170793844	 0.1685669463	 0.0304340751	 0.137658
O	 0.0380617687	-0.5437374902	 1.2637516376	-0.269361
C	 1.0118590366	-0.2243156646	 2.2332682065	-0.125484
C	 2.4577783462	-0.0779309734	 1.8271950194	-0.059547
C	 2.9908550056	 0.2816372352	 0.6588115065	-0.081526
H	 0.1002980383	 2.0378144349	 1.1719731403	 0.111665
H	-0.6312161532	 2.2209231209	-0.4057966087	 0.10163
H	 1.4265356234	 2.4517835583	-1.4962482546	 0.094894
H	 2.1363926193	 2.7391036617	 0.0906049996	 0.098702
H	 2.9947986046	 0.6619365118	-1.4338950383	 0.063056
H	 0.7598892441	-0.121061772	-1.9701801274	 0.08851
H	 1.3120606152	-1.3501380214	-0.8134160914	 0.103866
H	-1.0095876019	-0.0832348747	-0.3529450514	 0.078436
H	 0.7282334688	 0.6917916345	 2.7850258486	 0.100699
H	 0.9366360264	-1.0379668917	 2.9643289469	 0.115091
H	 3.1369059368	-0.2393123106	 2.6638970965	 0.087091
H	 4.0739764051	 0.3800123189	 0.6217484129	 0.084079
62.6624	198.6091	259.2627	304.4124	385.1899	415.3684	468.5596	499.5431	660.4935	708.8737	752.8434	773.2955	798.0369	811.2638	837.4267	886.5111	900.1354	946.9882	979.58	1001.5079	1003.7022	1019.2036	1035.2566	1068.341	1090.0606	1139.8714	1183.631	1201.7587	1226.6214	1240.2793	1268.7208	1275.5787	1298.0608	1315.6689	1338.8967	1349.5913	1384.3892	1399.6069	1416.8743	1424.608	1475.3532	1477.3277	1492.9779	1507.8298	1729.1039	2923.6014	3027.9315	3039.5411	3048.2888	3062.2752	3062.868	3076.2913	3093.5873	3112.0583	3113.3305	3122.8432	3149.6233
C1CC2CC1OCC=C2	C1C[C@@H]2C[C@H]1OCC=C2	
InChI=1S/C8H12O/c1-2-7-3-4-8(6-7)9-5-1/h1-2,7-8H,3-6H2	InChI=1S/C8H12O/c1-2-7-3-4-8(6-7)9-5-1/h1-2,7-8H,3-6H2/t7-,8+/m1/s1
