23
gdb 93010	2.72551	1.30954	0.99107	0.2503	92.83	-0.2203	0.0311	0.2514	1294.4331	0.207317	-351.171271	-351.162641	-351.161697	-351.204077	34.895	
C	-0.0006870436	 1.565504625	 0.0164487849	-0.403867
C	 0.0235133134	 0.035264676	-0.00252613	 0.024994
C	 0.6955036394	-0.5079198654	-1.2766369722	-0.248145
C	 0.9552508876	-1.9908963721	-1.2070372672	-0.099379
C	 0.9172490073	-2.6863159949	-0.0691751525	-0.094378
C	 0.6568018316	-2.0653338388	 1.2525225921	 0.354466
C	-0.3443390471	-2.7527924761	 2.1705884774	-0.303112
C	 1.1227429151	-2.7943667358	 2.4954822203	-0.323673
C	 0.7225486767	-0.5456319479	 1.2375575196	-0.287515
H	 1.0168145897	 1.9736682517	 0.0459412612	 0.111065
H	-0.4931212516	 1.9674478066	-0.8757767034	 0.108674
H	-0.5362104044	 1.9445724433	 0.8935269695	 0.108156
H	-1.01368276	-0.3283611072	 0.0035559557	 0.07529
H	 0.0701986212	-0.2816499537	-2.1504468756	 0.098259
H	 1.6416941127	 0.0287818029	-1.4519852638	 0.100728
H	 1.1758365558	-2.5010974268	-2.1414487104	 0.081145
H	 1.0852167515	-3.7616332117	-0.081601041	 0.077453
H	-0.9876058022	-2.1195750525	 2.77315586	 0.110611
H	-0.8189839604	-3.6618877408	 1.8173618098	 0.110914
H	 1.6516968188	-3.7333335486	 2.3679330193	 0.110258
H	 1.4823313932	-2.1912204555	 3.3229850607	 0.109864
H	 1.7752680029	-0.2274778404	 1.2307965142	 0.093618
H	 0.2783683625	-0.1378905275	 2.1535163116	 0.084574
102.9825	139.9467	232.2078	245.1988	262.9806	345.7542	352.4261	418.5524	427.0931	446.4734	526.2456	656.026	739.2665	774.8642	792.2334	837.6034	889.051	911.8153	915.8533	943.7598	950.6267	957.1612	995.583	999.1656	1005.9891	1055.7391	1075.6834	1094.1003	1117.3431	1147.5932	1177.1879	1192.0869	1212.3957	1261.4852	1300.4129	1318.5531	1326.7677	1351.3282	1374.6749	1396.0966	1409.7145	1432.6129	1467.4873	1473.5607	1489.3605	1497.8263	1499.2732	1501.3131	1715.1539	2980.2809	2996.9819	3009.4197	3022.6721	3031.7508	3051.944	3088.4644	3094.1808	3123.5789	3128.1609	3134.8161	3161.7541	3202.5763	3218.3072
CC1CC=CC2(CC2)C1	C[C@H]1CC=CC2(CC2)C1	
InChI=1S/C9H14/c1-8-3-2-4-9(7-8)5-6-9/h2,4,8H,3,5-7H2,1H3	InChI=1S/C9H14/c1-8-3-2-4-9(7-8)5-6-9/h2,4,8H,3,5-7H2,1H3/t8-/m0/s1
