20
gdb 63773	2.80724	1.42472	1.19669	2.251	80.27	-0.2406	-0.0381	0.2025	1118.7751	0.169317	-403.109987	-403.10093	-403.099985	-403.143485	34.193	
C	-0.1389052166	 1.5917410573	-0.1236642764	-0.469316
C	 0.0105969185	 0.0744280788	-0.0366267472	 0.310199
C	-1.3529161655	-0.6063949296	-0.2103574036	-0.432077
C	 1.1054160028	-0.636133786	-0.8923591939	-0.22303
N	 1.6586272478	-1.3596158633	 0.3218025932	-0.149192
C	 2.2148694501	-0.3599394279	 1.2543099076	-0.101779
C	 3.0070538932	 0.861911036	 0.938397568	 0.147922
O	 3.1500816153	 1.4038167047	-0.1322845313	-0.266072
C	 0.7280598781	-0.5421980808	 1.1745934779	-0.082125
H	 0.8185603332	 2.1094920466	-0.0690906818	 0.142034
H	-0.6118442514	 1.8701737082	-1.0724105924	 0.115897
H	-0.7823596275	 1.9617534952	 0.6830345448	 0.110891
H	-1.7743863654	-0.3714167993	-1.1935798594	 0.118294
H	-1.2700804033	-1.6947706124	-0.1274771399	 0.125157
H	-2.0635491789	-0.2610920691	 0.5492305203	 0.113527
H	 0.7061683036	-1.3749242062	-1.5901934053	 0.107656
H	 1.8346637195	-0.0016858047	-1.3912504898	 0.144141
H	 2.6316486584	-0.8590353796	 2.1294512175	 0.107829
H	 3.5223404124	 1.2617843827	 1.8422018546	 0.083491
H	 0.2131141457	-0.9717394206	 2.0316977571	 0.096554
75.3581	152.3618	166.2978	194.6209	247.2668	261.3965	304.8251	353.6974	370.9901	418.7508	517.0523	613.6188	696.4312	746.493	809.3442	860.3001	870.8061	906.43	942.6955	964.5507	973.2573	1000.2317	1035.0355	1045.9337	1070.9383	1098.7368	1173.4827	1220.3561	1234.3174	1247.8352	1267.189	1296.3315	1362.3378	1402.5497	1415.228	1426.3781	1439.4075	1484.6547	1487.0096	1494.8498	1504.5884	1515.8539	1806.9575	2863.3374	3024.5139	3032.6538	3080.2417	3085.8893	3094.4102	3104.0288	3110.1861	3130.948	3152.5175	3165.9444
CC1(C)CN2C(C=O)C12	CC1(C)CN2[C@@H](C=O)[C@@H]12	
InChI=1S/C7H11NO/c1-7(2)4-8-5(3-9)6(7)8/h3,5-6H,4H2,1-2H3	InChI=1S/C7H11NO/c1-7(2)4-8-5(3-9)6(7)8/h3,5-6H,4H2,1-2H3/t5-,6-,8?/m0/s1
