17
gdb 91147	3.04342	1.47895	1.21004	2.2861	68.37	-0.2285	0.0468	0.2752	1042.3339	0.13791	-455.153198	-455.145476	-455.144531	-455.185548	30.291	
N	-0.2878646375	 1.3860040141	 0.1963719555	-0.575063
C	-0.2144426234	 0.0246412287	 0.0989283707	 0.456521
N	-1.0706168323	-0.828189846	 0.5021364478	-0.33497
C	-0.5944179358	-2.1220552035	 0.0205121022	-0.012203
C	-1.0946390937	-2.5219729368	-1.4035388767	-0.275271
C	 0.3708694409	-2.4106178978	-1.9423682061	 0.132898
O	 0.6344632759	-1.6242733649	-3.0698488378	-0.432138
C	 0.8271547391	-1.8505370997	-0.5680997971	 0.031199
O	 0.9068301622	-0.4098891229	-0.5692268259	-0.277992
H	 0.5989266976	 1.8650639782	 0.2348927405	 0.264729
H	-0.9746288928	 1.7110081923	 0.8591306255	 0.271402
H	-0.6863385673	-2.8944918747	 0.7857334711	 0.077211
H	-1.5542925872	-3.5080272876	-1.502028627	 0.102398
H	-1.7668366425	-1.7716157503	-1.8261359453	 0.109333
H	 0.8083251228	-3.3961159106	-2.1299801847	 0.090486
H	 0.5917935856	-0.7035624492	-2.7826588579	 0.287811
H	 1.7364666484	-2.2474628192	-0.1124369449	 0.083649
64.6027	153.5005	230.1673	338.4973	379.4763	393.9435	415.0459	446.4684	558.5378	578.7084	628.08	710.7194	736.3383	752.2747	817.2649	862.8723	905.4635	935.9147	941.4503	1019.3633	1053.4674	1072.1789	1096.8467	1153.7834	1162.3573	1199.2979	1235.6497	1266.8597	1275.943	1296.7893	1325.2968	1335.5692	1409.3553	1440.7008	1470.7426	1616.703	1754.2529	3060.588	3066.5984	3086.044	3096.9536	3127.7293	3586.3998	3699.7354	3776.9081
NC1=NC2CC(O)C2O1	NC1=N[C@H]2C[C@@H](O)[C@H]2O1	
InChI=1S/C5H8N2O2/c6-5-7-2-1-3(8)4(2)9-5/h2-4,8H,1H2,(H2,6,7)	InChI=1S/C5H8N2O2/c6-5-7-2-1-3(8)4(2)9-5/h2-4,8H,1H2,(H2,6,7)/t2-,3+,4-/m0/s1
