17
gdb 28421	3.10504	1.34733	0.9463	2.5997	80.34	-0.1951	-0.0112	0.184	1198.5119	0.137726	-418.084555	-418.076324	-418.07538	-418.1169	32.034	
C	-0.0401215305	 1.5388218978	 0.0169624153	-0.512174
C	 0.0059812708	 0.0356372679	-0.0158633702	 0.295449
C	-0.0082145817	-0.6667161339	-1.2115596539	-0.294849
C	 0.0575026069	-2.0620794465	-1.1832047265	 0.422534
O	 0.0477144558	-2.7425018355	-2.3565521067	-0.429045
N	 0.128619734	-2.7642101199	-0.0638011496	-0.372825
C	 0.130807796	-2.0886025353	 1.0909524737	-0.061518
C	 0.0763507178	-0.7009065772	 1.1863584744	 0.17278
N	 0.1641759383	-0.0456889513	 2.4281637962	-0.594864
H	 0.7923330176	 1.9420436759	 0.6048635496	 0.144787
H	 0.0085759392	 1.9596032317	-0.9896160826	 0.131158
H	-0.9653334133	 1.9051328098	 0.4826200777	 0.126444
H	-0.0617674673	-0.1510029526	-2.1634308314	 0.09992
H	 0.1020308992	-3.6770040546	-2.1152249256	 0.292603
H	 0.1853552794	-2.6899670755	 1.9973004257	 0.092368
H	 0.0012314874	-0.6641062285	 3.2120103097	 0.243214
H	-0.4326215796	 0.7672570376	 2.5067256742	 0.24402
140.5675	167.6958	200.7269	271.0696	291.369	336.0585	384.8888	454.2114	458.234	502.9219	529.0091	563.9054	630.5349	706.3849	769.1623	774.0811	800.2416	889.6265	921.8281	975.6342	1019.2773	1059.415	1105.1434	1168.6447	1206.9796	1273.6426	1326.1516	1342.2987	1363.5833	1408.093	1474.2394	1480.841	1502.4147	1532.5865	1621.8445	1650.0254	1671.4489	3014.0121	3069.8782	3124.0272	3133.3605	3195.2357	3538.4193	3629.8887	3775.3423
CC1=CC(O)=NC=C1N	Cc1cc(O)ncc1N	
InChI=1S/C6H8N2O/c1-4-2-6(9)8-3-5(4)7/h2-3H,7H2,1H3,(H,8,9)	InChI=1S/C6H8N2O/c1-4-2-6(9)8-3-5(4)7/h2-3H,7H2,1H3,(H,8,9)
