15
gdb 28538	3.26841	1.35756	0.96002	1.3826	72.86	-0.1962	-0.0003	0.1959	1142.9481	0.114122	-454.011911	-454.003871	-454.002927	-454.044084	31.12	
N	-0.0639822732	 1.3825945555	 0.2511076833	-0.569638
C	 0.0139534038	 0.0059945207	 0.0725388221	 0.383526
N	-1.1478789787	-0.6469077788	-0.0019166053	-0.349732
C	-1.104605491	-1.9814216905	-0.1103243552	-0.112119
C	 0.0648643184	-2.7122761839	-0.1603678736	 0.190063
O	 0.1582675352	-4.0807866604	-0.2792024448	-0.476448
C	 1.2855645823	-2.0183371903	-0.0904610473	 0.368797
O	 2.4590987874	-2.6875303254	-0.1382826245	-0.439734
C	 1.2608028379	-0.6415566202	 0.0311886527	-0.293705
H	 0.6996543633	 1.9193008864	-0.1314971826	 0.245901
H	-0.9715323757	 1.7518788815	 0.0059074377	 0.250021
H	-2.0656380627	-2.4937461719	-0.1657939882	 0.090613
H	-0.7236814861	-4.4641188004	-0.300884468	 0.303564
H	 2.2536849783	-3.6286412446	-0.2164866115	 0.312188
H	 2.1920038809	-0.0915944877	 0.1009579254	 0.096703
141.6555	157.6845	227.9691	297.3607	327.3922	357.8721	389.1953	452.9837	458.1606	492.9894	538.43	595.1226	599.5175	698.5605	758.6874	782.0707	799.2393	863.4662	910.7061	980.6663	1092.0312	1161.3536	1206.4971	1224.7633	1312.62	1332.7774	1370.0978	1399.4132	1493.4512	1551.1291	1632.5434	1636.9754	1678.786	3115.9879	3196.8794	3567.3758	3677.2449	3775.915	3838.2036
NC1=NC=C(O)C(O)=C1	Nc1ncc(O)c(O)c1	
InChI=1S/C5H6N2O2/c6-5-1-3(8)4(9)2-7-5/h1-2,9H,(H3,6,7,8)	InChI=1S/C5H6N2O2/c6-5-1-3(8)4(9)2-7-5/h1-2,9H,(H3,6,7,8)
