23
gdb 104504	1.82384	1.28064	0.99102	0.5711	91.28	-0.2572	0.0529	0.3101	1381.4187	0.20303	-351.11913	-351.108419	-351.107475	-351.155035	39.903	
C	-0.7586753565	 1.4700452713	 0.7246395994	-0.383168
C	-0.0711445288	 0.2292604718	 0.1389287501	-0.257692
C	 0.8713488339	-0.4702930462	 1.1082342346	 0.371911
C	 2.0891672974	 0.3571415278	 1.534999965	-0.436036
C	 2.9693565288	 0.7099931061	 0.4238647851	 0.32542
C	 3.6817840476	 0.9940545043	-0.5021564356	-0.463343
C	 0.2876621226	-1.3824464069	 2.1660109608	-0.350925
C	 1.0958603514	-1.966671404	 1.0283840335	-0.027612
C	 0.4667854567	-2.8677413958	-0.0124626365	-0.419089
H	-0.039857062	 2.2573375007	 0.9727473573	 0.119969
H	-1.4682371465	 1.8938119136	 0.0072475045	 0.111319
H	-1.310892473	 1.2219159847	 1.6375173572	 0.114763
H	-0.8414265895	-0.4753575646	-0.188653649	 0.093075
H	 0.4898828261	 0.5122550515	-0.760205047	 0.111065
H	 1.7620384658	 1.2742193815	 2.0419787925	 0.128117
H	 2.6614910657	-0.2071884263	 2.2816310165	 0.123008
H	 4.3185065796	 1.2468316112	-1.3132393217	 0.193404
H	 0.7111975187	-1.3719421925	 3.1655324462	 0.103531
H	-0.786695892	-1.5416433789	 2.1460400758	 0.105692
H	 2.1056617708	-2.2717901775	 1.2952434682	 0.082334
H	-0.5768933753	-2.609163479	-0.2108165424	 0.11671
H	 1.0094084507	-2.8199624515	-0.9631242907	 0.121281
H	 0.4819031077	-3.9095048114	 0.3266957063	 0.116267
41.834	84.4277	125.3868	151.5557	213.327	219.6051	236.0399	275.1637	349.8742	351.1071	380.216	431.7714	506.8609	540.0114	615.6858	634.1522	704.5369	770.4567	805.699	877.717	887.6295	905.3357	964.5277	978.1965	994.6265	1033.9108	1045.6351	1061.8975	1096.6532	1129.0366	1137.235	1190.1968	1215.9451	1252.177	1316.9882	1320.8368	1345.2575	1387.3211	1408.625	1411.8844	1430.9443	1469.468	1480.0868	1494.6392	1496.3418	1500.5741	1507.1478	1508.3958	2234.4241	3019.6124	3029.7212	3033.8868	3036.5476	3050.0441	3075.9347	3088.2161	3102.5682	3103.1932	3107.3126	3118.1292	3127.7101	3199.6386	3506.1002
CCC1(CC#C)CC1C	CC[C@@]1(CC#C)C[C@H]1C	
InChI=1S/C9H14/c1-4-6-9(5-2)7-8(9)3/h1,8H,5-7H2,2-3H3	InChI=1S/C9H14/c1-4-6-9(5-2)7-8(9)3/h1,8H,5-7H2,2-3H3/t8-,9-/m1/s1
