15
gdb 49926	4.72877	0.91895	0.84646	2.1999	72.55	-0.2495	-0.0488	0.2007	1304.2379	0.112657	-416.819151	-416.810933	-416.809988	-416.853019	29.236	
O	-0.3348108329	 0.0233705424	 0.1950052341	-0.238817
C	-0.0624020485	 1.1434988357	-0.1415377885	 0.161027
C	 1.3416068554	 1.7526821077	-0.0440361732	-0.109396
N	 1.5374870481	 2.7517685399	-1.0999670014	-0.325759
C	 2.0853253226	 3.9932958652	-0.5309446144	-0.141422
C	 1.8677567552	 3.8065224015	 0.9577398667	-0.073285
C	 1.4757323777	 2.5659778923	 1.2217087786	-0.067139
C	 3.5159067799	 4.2008489842	-0.8436645356	 0.252851
N	 4.6305943384	 4.345222641	-1.1139907992	-0.316535
H	-0.81483954	 1.8564532309	-0.5456592901	 0.089454
H	 2.0617328346	 0.9210276319	-0.0582086666	 0.112394
H	 2.0687141282	 2.4083621619	-1.8879174516	 0.248407
H	 1.5444924527	 4.8694035319	-0.9159967958	 0.137936
H	 2.058408482	 4.5986528477	 1.6689564511	 0.134386
H	 1.2625184966	 2.149528466	 2.1974659959	 0.135896
54.9764	68.5356	142.0281	190.0456	282.4912	330.5643	418.7965	452.8469	533.5453	565.9565	632.0808	746.3326	816.0415	833.4331	916.5525	919.8499	971.3814	984.3644	1005.0206	1063.0327	1071.7034	1132.8119	1140.6277	1239.0859	1274.5218	1320.7766	1329.1243	1347.8304	1391.4579	1446.154	1685.4579	1838.4509	2347.9206	2895.9571	2999.0749	3003.348	3220.5484	3244.1583	3593.9043
O=CC1NC(C=C1)C#N	O=C[C@H]1N[C@@H](C=C1)C#N	
InChI=1S/C6H6N2O/c7-3-5-1-2-6(4-9)8-5/h1-2,4-6,8H	InChI=1S/C6H6N2O/c7-3-5-1-2-6(4-9)8-5/h1-2,4-6,8H/t5-,6-/m0/s1
