21
gdb 83704	2.48139	1.5909	1.18338	2.7734	81.2	-0.2345	-0.0123	0.2221	1123.1013	0.183455	-387.120535	-387.112116	-387.111172	-387.153895	32.582	
C	-0.1356100998	 1.6076013962	 0.0385878395	-0.403591
C	 0.0806477631	 0.0981366082	-0.0005506549	-0.097519
C	 0.787023385	-0.4974653219	-1.2197730562	-0.01408
C	 2.1863745571	 0.0770983964	-1.6012407533	-0.233916
C	 2.7879569332	-1.3497772839	-1.4858466894	-0.222372
C	 1.4966137079	-1.8307267217	-0.7700937431	-0.029323
C	 1.529576002	-1.7819827396	 0.767900454	-0.331647
C	 0.9037318501	-0.441809661	 1.1790601443	 0.379213
O	 1.0375596201	 0.0991671374	 2.2467738727	-0.316297
H	 0.7976032833	 2.1460755535	-0.1523191811	 0.122552
H	-0.8677519816	 1.9235401139	-0.7103137063	 0.110186
H	-0.4916357752	 1.9090517987	 1.0272210341	 0.136235
H	-0.8972659477	-0.4038359735	 0.0935597565	 0.097175
H	 0.1290945431	-0.6057882741	-2.0841620223	 0.067687
H	 2.265795249	 0.5707889811	-2.5720675404	 0.101741
H	 2.5804960131	 0.7621648801	-0.8440299022	 0.108958
H	 2.9151155772	-1.8270787188	-2.46106341	 0.10239
H	 3.7246991243	-1.4519926608	-0.9301187545	 0.098647
H	 1.074823806	-2.7672317461	-1.1392912508	 0.068471
H	 0.9208919586	-2.5786903514	 1.212662152	 0.128625
H	 2.5292864413	-1.8766653727	 1.2016065013	 0.126864
58.2294	95.2943	188.3918	211.6578	248.2786	341.8323	428.8137	453.8046	542.4902	565.3875	638.8369	712.0434	728.5766	773.8894	823.998	877.1727	885.6178	917.2693	951.0054	967.2561	1000.3857	1025.067	1044.0232	1082.381	1130.6124	1137.1554	1160.7946	1177.6393	1199.5804	1227.581	1255.9473	1258.8097	1275.1631	1282.0462	1296.8132	1331.0745	1343.3016	1359.1761	1409.095	1444.7888	1481.2028	1493.8277	1497.8774	1499.6954	1838.8171	2969.5806	3039.5887	3043.7026	3050.8338	3055.7108	3076.2564	3087.7194	3093.4177	3098.269	3111.2096	3116.2037	3122.357
CC1C2CCC2CC1=O	C[C@H]1[C@H]2CC[C@H]2CC1=O	
InChI=1S/C8H12O/c1-5-7-3-2-6(7)4-8(5)9/h5-7H,2-4H2,1H3	InChI=1S/C8H12O/c1-5-7-3-2-6(7)4-8(5)9/h5-7H,2-4H2,1H3/t5-,6-,7+/m0/s1
