20
gdb 23217	2.73265	1.49451	1.1756	1.0139	82.18	-0.2358	0.021	0.2569	1111.5829	0.172245	-403.102608	-403.094498	-403.093553	-403.134868	32.462	
C	-0.1222605413	 1.5666122182	 0.0033003307	-0.417128
C	 0.0425198958	 0.0436251188	-0.00718344	-0.061054
C	 0.9620399024	-0.527623146	-1.1207496559	-0.031366
C	 1.1706322201	-1.9950838469	-0.6481058748	-0.238983
C	 1.9468297542	-1.2956074786	 0.5211305082	-0.099069
C	 2.3921138879	-0.2591671641	-0.5625344904	-0.234924
C	 0.8128975579	-0.5528116749	 1.1750975639	 0.467504
N	 0.6094487484	-0.5279710346	 2.4273100199	-0.295192
O	-0.5619380515	 0.1999676283	 2.7454795117	-0.398455
H	 0.842073608	 2.0799365815	 0.0632877894	 0.115177
H	-0.6220571859	 1.8987227586	-0.9130362959	 0.109527
H	-0.7210279922	 1.8795145702	 0.8601003743	 0.143224
H	-0.9527751343	-0.4155464655	-0.0580537251	 0.092734
H	 0.6910671194	-0.2854017536	-2.1486915578	 0.063409
H	 0.2882252238	-2.5894563776	-0.3945996983	 0.099344
H	 1.8390883845	-2.5614237823	-1.3004133327	 0.101254
H	 2.6450521586	-1.8198448058	 1.1700655767	 0.076992
H	 3.174490147	-0.6593751494	-1.2112527627	 0.101904
H	 2.6551294742	 0.749399994	-0.2354772131	 0.101479
H	-0.5754044173	 0.1428175595	 3.7063481119	 0.303624
113.3449	187.9742	206.1466	247.9919	286.8654	331.9571	410.1332	434.1669	483.803	547.3248	645.2343	656.8778	770.1666	810.6335	835.4258	860.6884	883.1903	894.4019	957.1909	979.6945	1013.7887	1024.0353	1041.4486	1059.8797	1080.7869	1100.4887	1110.9757	1136.6155	1201.7703	1223.436	1234.6882	1248.206	1261.2994	1299.3445	1313.9365	1353.454	1403.1735	1407.3695	1485.3154	1495.3164	1505.952	1524.0121	1778.0933	3028.3348	3040.4761	3056.2543	3065.9693	3103.5303	3111.1658	3119.7231	3124.8229	3141.0681	3145.2768	3823.7009
CC1C2CC(C2)C1=NO	C[C@H]1[C@@H]2C[C@@H](C2)C1=NO	
InChI=1S/C7H11NO/c1-4-5-2-6(3-5)7(4)8-9/h4-6,9H,2-3H2,1H3	InChI=1S/C7H11NO/c1-4-5-2-6(3-5)7(4)8-9/h4-6,9H,2-3H2,1H3/t4-,5-,6+/m0/s1
