15
gdb 55229	3.1445	1.2753	1.02011	3.2579	61.29	-0.2704	-0.044	0.2264	1133.0895	0.11147	-494.967816	-494.959465	-494.958521	-495.002331	28.961	
C	-0.9920621632	 0.3479245732	 0.3608816039	-0.479775
C	 0.4375525793	 0.2251866397	-0.1027529703	 0.34745
O	 1.3805258145	 0.7054592359	 0.4794052952	-0.2855
C	 0.6915697011	-0.5227327476	-1.4269140076	-0.016832
C	 1.962183429	-1.3885879699	-1.408735654	-0.116903
O	 1.4468389838	-2.7196098076	-1.306636183	-0.239471
C	 0.1188979867	-2.7334872696	-1.5675928771	 0.503661
O	-0.557063374	-3.7064177804	-1.6445890105	-0.364497
O	-0.345318372	-1.4576151684	-1.7273114509	-0.249217
H	-1.6226785817	 0.7484143723	-0.4401728708	 0.153053
H	-1.3944585504	-0.6424494932	 0.5980603281	 0.168036
H	-1.0370163246	 0.991195875	 1.2397435057	 0.149823
H	 0.7158071084	 0.2303755883	-2.2221067938	 0.136775
H	 2.5466042056	-1.3029502247	-2.3288547555	 0.132293
H	 2.5915374777	-1.1674198131	-0.5464282694	 0.161106
40.343	62.6472	131.3259	147.5466	242.4737	304.9121	421.9845	457.0137	552.3654	588.3959	729.5097	743.7465	771.1896	796.5073	903.1375	951.3925	975.81	1017.937	1074.8776	1093.4539	1116.007	1145.4234	1207.663	1225.2589	1313.5085	1347.2876	1387.5667	1396.4783	1453.742	1467.679	1528.9819	1818.2014	1933.0219	3046.0796	3055.2464	3070.7292	3106.8803	3141.6861	3161.8429
CC(=O)C1COC(=O)O1	CC(=O)[C@H]1COC(=O)O1	
InChI=1S/C5H6O4/c1-3(6)4-2-8-5(7)9-4/h4H,2H2,1H3	InChI=1S/C5H6O4/c1-3(6)4-2-8-5(7)9-4/h4H,2H2,1H3/t4-/m1/s1
