18
gdb 94332	2.58161	1.27935	1.1041	3.4759	77.05	-0.2493	0.0264	0.2757	1172.6551	0.146791	-401.934177	-401.925417	-401.924472	-401.968141	32.203	
C	-0.3108453524	 1.4342088922	 0.0444595201	-0.411454
C	 0.0486145409	-0.0407620483	-0.0578467904	-0.128713
C	 1.3680311884	-0.4028495513	-0.7846988301	-0.08969
O	 1.9299213861	-0.971320946	 0.428983291	-0.307785
C	 0.7439353543	-0.6842762251	 1.1418016884	 0.473153
C	 0.7451508511	-0.3324040069	 2.5816006973	-0.356852
C	 0.1835955399	-1.6918962763	 2.1357580335	-0.273973
C	-1.2282263977	-1.9265195761	 2.1639729578	 0.292395
N	-2.3749461419	-2.0875960858	 2.1516244686	-0.345931
H	 0.5378291765	 2.0264025268	 0.4023473312	 0.124427
H	-0.6109128688	 1.8264890931	-0.9326189537	 0.125909
H	-1.1481673104	 1.5879640227	 0.7326859835	 0.133226
H	-0.8094077403	-0.6219387997	-0.4046859482	 0.110326
H	 1.2924228463	-1.1501187431	-1.5809057027	 0.116225
H	 1.959602006	 0.4506242824	-1.1336256672	 0.111713
H	 1.6934432492	-0.3641979026	 3.1064870294	 0.141112
H	 0.038647871	 0.4086415957	 2.9388605792	 0.142591
H	 0.8080481818	-2.5575921017	 2.3290917524	 0.14332
54.6405	94.143	147.0452	210.2543	232.0235	283.3537	356.5378	372.1607	450.3031	540.2149	565.9517	624.1514	768.2666	805.1158	875.6565	881.7066	898.4046	924.9831	937.605	1004.594	1041.1059	1073.127	1089.0463	1108.4821	1118.4907	1149.6719	1181.4799	1207.1828	1261.6134	1311.7232	1342.7355	1380.5191	1400.4613	1413.3994	1470.4134	1495.5166	1499.5452	1525.6141	2344.4749	3032.5847	3035.8189	3073.7006	3089.2833	3105.1525	3109.5158	3138.2288	3174.8288	3233.1638
CC1COC11CC1C#N	C[C@H]1CO[C@]21C[C@H]2C#N	
InChI=1S/C7H9NO/c1-5-4-9-7(5)2-6(7)3-8/h5-6H,2,4H2,1H3	InChI=1S/C7H9NO/c1-5-4-9-7(5)2-6(7)3-8/h5-6H,2,4H2,1H3/t5-,6-,7-/m0/s1
