20
gdb 88397	2.09732	1.419	1.22338	1.7917	75.87	-0.2323	-0.0355	0.1968	1154.9728	0.166835	-440.249679	-440.239342	-440.238398	-440.285148	37.476	
C	 0.7850281429	-2.3917114716	 2.9274851071	-0.340976
N	 0.0205912133	-1.7428341749	 1.8670550802	-0.076694
C	-1.0739412927	-0.8570719991	 2.2228027666	-0.281526
C	 0.158227966	-0.3317762688	 1.5475545101	-0.05428
C	 1.1019203465	 0.707685182	 2.1815133458	 0.242096
C	 2.5746395264	 0.3504303271	 1.9998922687	-0.406667
O	 0.8990233191	 1.9439303943	 1.4884484681	-0.454419
C	 0.7794698789	 0.9972990075	 3.6548196429	 0.121588
O	 1.3234615641	 0.5104308712	 4.6105801923	-0.244578
H	 0.977123953	-1.7675764458	 3.8079723516	 0.142067
H	 0.2316132337	-3.2810343734	 3.2444380243	 0.124562
H	 1.7447447601	-2.7245071444	 2.5203046139	 0.127124
H	-2.0029291538	-0.9869110341	 1.6721364457	 0.117411
H	-1.207499594	-0.6148859105	 3.277620855	 0.116912
H	 0.1119329934	-0.1369347297	 0.4750689582	 0.105095
H	 2.7646034452	 0.0461038272	 0.9678205904	 0.125227
H	 3.1925927022	 1.2232780564	 2.2259389291	 0.132183
H	 2.8565070213	-0.4577549107	 2.6753693962	 0.141324
H	-0.0500593467	 2.1035296438	 1.4231516339	 0.285542
H	-0.0179859087	 1.7680469735	 3.7717510699	 0.078008
37.0833	83.7712	179.9132	189.0585	218.1808	224.9297	257.5402	279.9895	307.2509	333.1079	372.4577	399.7935	485.9368	545.7669	565.4001	722.3571	778.1685	888.2059	922.861	937.6844	984.9672	1013.896	1035.7836	1081.6442	1122.7351	1125.5974	1144.8265	1162.1315	1179.1705	1205.1816	1223.0373	1342.1889	1350.3512	1381.9425	1396.2347	1426.4675	1454.3865	1480.27	1491.092	1497.375	1507.0268	1514.06	1829.3987	2859.969	3025.5538	3057.5989	3079.5678	3091.6551	3094.9038	3104.3898	3130.0513	3155.5412	3163.5718	3790.2211
CN1CC1C(C)(O)C=O	CN1C[C@H]1[C@@](C)(O)C=O	
InChI=1S/C6H11NO2/c1-6(9,4-8)5-3-7(5)2/h4-5,9H,3H2,1-2H3	InChI=1S/C6H11NO2/c1-6(9,4-8)5-3-7(5)2/h4-5,9H,3H2,1-2H3/t5-,6-,7?/m0/s1
