16
gdb 26635	3.29724	1.26085	0.92178	1.1924	81.15	-0.2134	-0.0026	0.2108	1217.3048	0.122861	-400.75187	-400.742633	-400.741688	-400.786807	33.334	
C	 0.0997820229	 1.5603983091	 0.1189723857	-0.518492
C	 0.0193343072	 0.0716223608	 0.0421788108	 0.115649
C	 0.0057817996	-0.6938305647	-1.0807043828	 0.215281
N	 0.0599791212	-0.3389342639	-2.4290930321	-0.596416
O	-0.0769554201	-2.0334901235	-0.7444780865	-0.165983
C	-0.1153170029	-2.1027264474	 0.6022433864	-0.135423
C	-0.0604492786	-0.8539228918	 1.1553660124	 0.057265
C	-0.0775618236	-0.5260826462	 2.5298170762	 0.241893
C	-0.0903374546	-0.2172790802	 3.6941802967	-0.444264
H	 0.1496369106	 1.9861722437	-0.8854929473	 0.13901
H	-0.7718101732	 1.9799258962	 0.6335468256	 0.132571
H	 0.9843351344	 1.8826277582	 0.6794987977	 0.132579
H	-0.7655769147	-0.6378518488	-2.9393070465	 0.247701
H	 0.8715975888	-0.729953716	-2.8976918542	 0.247696
H	-0.1808118821	-3.0868538272	 1.0361043061	 0.144856
H	-0.1021560249	 0.0457881118	 4.7224973517	 0.186077
23.4796	108.1523	128.5412	166.8329	255.8322	259.2839	291.5332	397.7005	484.1399	518.2021	552.7333	563.6485	629.1167	653.325	688.1249	693.3723	758.5558	766.383	789.2448	937.2979	1069.5965	1069.8216	1139.9367	1185.6616	1214.8169	1257.059	1295.1105	1388.796	1423.2136	1485.6787	1488.69	1577.4908	1649.2763	1707.3126	2232.1847	3033.6756	3083.5099	3130.5245	3275.9889	3493.0439	3504.4683	3558.1851
CC1=C(N)OC=C1C#C	Cc1c(N)occ1C#C	
InChI=1S/C7H7NO/c1-3-6-4-9-7(8)5(6)2/h1,4H,8H2,2H3	InChI=1S/C7H7NO/c1-3-6-4-9-7(8)5(6)2/h1,4H,8H2,2H3
