23
gdb 77414	1.81199	1.6216	1.54677	0.281	89.9	-0.1955	0.0869	0.2824	1139.0531	0.204333	-351.089945	-351.080367	-351.079423	-351.123445	37.349	
C	-0.1888697002	 1.6030684603	-0.0593525311	-0.440223
C	 0.1151287678	 0.1059036779	 0.0386056787	-0.123645
C	 1.3506177177	-0.6906585386	-0.3274383722	 0.277011
C	 1.3523253694	-1.7712188837	-1.37244399	-0.491615
C	 2.7032185139	-0.1182113453	 0.1899658546	-0.10292
C	 2.6400040769	 1.1535891587	 0.9908234556	-0.313848
C	 2.1720859542	-0.1328725886	 1.6144561462	-0.102916
C	 0.8147633615	-0.7054174554	 1.1096830605	 0.277006
C	 0.1391808336	-1.8046222074	 1.8810372173	-0.491613
H	 0.4832049575	 2.1217546319	-0.7487592127	 0.127497
H	-1.2061641721	 1.7461659905	-0.437152226	 0.107501
H	-0.1355773432	 2.1047036107	 0.9109682357	 0.127499
H	-0.7478697544	-0.4759527087	-0.2891720615	 0.079684
H	 1.5954683114	-1.3667288419	-2.3637406021	 0.11688
H	 2.0949247924	-2.5464267551	-1.1463525718	 0.11358
H	 0.3744115537	-2.2577962315	-1.4460279717	 0.113357
H	 3.6451644138	-0.5163623894	-0.1674272498	 0.082305
H	 3.6128425382	 1.4738512292	 1.3568649168	 0.106798
H	 1.9843098402	 1.9775848151	 0.7548196064	 0.11154
H	 2.6528390191	-0.5437510798	 2.4939856469	 0.082306
H	-0.3288442908	-1.4196920963	 2.7965593749	 0.11688
H	-0.6448149403	-2.2859495086	 1.2876045062	 0.113357
H	 0.8537477197	-2.5805375941	 2.1824790892	 0.113579
116.9684	156.7416	178.1696	194.28	216.855	245.0543	270.6468	301.5223	317.6481	396.3941	532.4608	573.2081	581.4114	687.7275	700.3447	719.0144	785.273	846.0978	880.4859	926.9818	951.683	979.5285	1013.156	1020.0716	1061.6298	1068.4624	1080.3491	1082.2263	1097.074	1114.969	1115.1471	1181.0026	1213.0012	1217.5559	1234.4881	1323.3351	1334.8643	1360.628	1407.5747	1414.6133	1417.6139	1481.1516	1481.2261	1487.0241	1493.4289	1494.7948	1507.0642	1508.4946	1514.2128	3009.5206	3012.2776	3036.6222	3062.8258	3063.9063	3079.6443	3091.2155	3094.936	3103.4085	3109.2192	3131.173	3175.1177	3186.3898	3251.9935
CC1C2(C)C3CC3C12C	C[C@H]1[C@@]2(C)[C@H]3C[C@H]3[C@@]12C	
InChI=1S/C9H14/c1-5-8(2)6-4-7(6)9(5,8)3/h5-7H,4H2,1-3H3	InChI=1S/C9H14/c1-5-8(2)6-4-7(6)9(5,8)3/h5-7H,4H2,1-3H3/t5-,6-,7+,8-,9+
