17
gdb 30279	3.09366	1.58554	1.1055	2.0628	73.88	-0.1873	0.034	0.2213	1077.1853	0.137661	-421.844329	-421.836793	-421.835849	-421.876743	28.788	
C	 0.0042911983	 1.6016295821	-0.1051024747	-0.39305
C	-0.0219528621	 0.0777078323	 0.061899975	-0.158145
C	 0.7847463514	-0.6587323405	-1.0787643401	-0.10125
O	 1.6522895562	-1.6804472347	-0.4801738124	-0.282298
C	 1.5582569686	-1.4152082528	 0.830232426	 0.429709
C	 0.6955305601	-0.4756413845	 1.2647334757	 0.152919
C	 0.8286456322	-0.4994903548	 2.6942581981	-0.356026
C	 1.7683953581	-1.4481785632	 2.9666598237	-0.024959
O	 2.2372594821	-2.0359858392	 1.7926592775	-0.2023
H	 1.0320465663	 1.9778639828	-0.07791482	 0.120662
H	-0.4486520562	 1.9034854067	-1.0561700975	 0.113689
H	-0.5554313696	 2.0894559038	 0.6987331613	 0.121774
H	-1.0702844476	-0.2510100733	 0.0371603136	 0.08726
H	 0.1452736796	-1.167363571	-1.8020257763	 0.12542
H	 1.4366080823	 0.0447581407	-1.6073741345	 0.119954
H	 0.3150977114	 0.0980493677	 3.4319018857	 0.111922
H	 2.2192606689	-1.8207048521	 3.8693792388	 0.13472
58.0908	147.7187	231.122	266.8362	296.5851	420.4118	481.4745	602.1112	611.8644	631.978	662.7758	735.0093	740.3059	820.0457	884.5619	913.4506	928.1416	960.7645	1013.1643	1030.271	1095.3039	1120.7327	1141.2574	1163.9561	1235.5013	1254.7377	1296.3662	1340.5126	1375.6517	1394.8033	1408.6967	1487.7266	1495.243	1498.9981	1510.4371	1541.5671	1678.6091	2993.7057	3028.9254	3049.4473	3098.2123	3108.6095	3120.5753	3248.9859	3300.8846
CC1COC2=C1C=CO2	C[C@H]1COc2c1cco2	
InChI=1S/C7H8O2/c1-5-4-9-7-6(5)2-3-8-7/h2-3,5H,4H2,1H3	InChI=1S/C7H8O2/c1-5-4-9-7-6(5)2-3-8-7/h2-3,5H,4H2,1H3/t5-/m0/s1
