21
gdb 75478	2.64017	1.09057	0.8437	2.7847	85.94	-0.2331	-0.02	0.2131	1405.3354	0.181629	-387.123073	-387.113532	-387.112588	-387.158475	34.473	
C	-0.5147488055	 1.4051521265	 0.1858279017	-0.500384
C	-0.052352404	-0.0075582935	 0.0071322372	 0.331009
C	 0.1877689309	-0.637418683	-1.1447061689	-0.162948
C	 0.6529567875	-2.059130498	-0.9553002786	-0.250475
C	 0.3670000676	-2.3192098103	 0.5458649568	-0.230609
C	 0.2352400912	-0.9141677837	 1.1953440734	-0.091299
C	 1.5179195224	-0.4766826326	 1.9535637207	-0.28134
C	 1.7113010776	-1.2863797796	 3.2120776414	 0.161529
O	 2.6306278511	-2.0357819104	 3.4228702741	-0.24219
H	 0.2056646845	 2.0016342318	 0.7599880483	 0.125407
H	-0.6637572574	 1.9011154945	-0.7769250682	 0.126595
H	-1.4619410362	 1.4458315183	 0.7393591304	 0.12472
H	 0.0845996053	-0.1810201532	-2.1242316648	 0.085563
H	 0.1272660293	-2.7684569778	-1.6045309024	 0.103597
H	 1.7201437277	-2.1610743234	-1.1975944136	 0.108896
H	-0.5816898414	-2.8544426096	 0.6481781918	 0.104234
H	 1.1360150997	-2.930990289	 1.0249117374	 0.114506
H	-0.5958926243	-0.8886967315	 1.9142206341	 0.0718
H	 2.4021690998	-0.5840268477	 1.3187291399	 0.121264
H	 1.4231105385	 0.5776159399	 2.2472781772	 0.111284
H	 0.8968279457	-1.1580765076	 3.9653016123	 0.068842
49.2663	72.8519	90.648	169.384	180.5649	244.7934	266.0077	320.8654	399.843	483.1197	562.4285	601.3884	695.9402	758.7176	828.4253	850.5746	891.7033	924.4915	930.0105	964.4115	993.2742	1033.9837	1049.195	1058.7404	1093.4626	1103.3564	1165.9084	1185.2582	1213.9411	1252.281	1258.9188	1293.0511	1309.2813	1331.1556	1358.2954	1365.0823	1415.927	1428.2235	1464.0413	1480.1784	1485.9713	1489.58	1503.7021	1723.1418	1830.4207	2842.0784	2998.7821	3009.3152	3015.8593	3022.7378	3048.3178	3059.9519	3061.9514	3099.5716	3103.9995	3110.9683	3180.5981
CC1=CCCC1CC=O	CC1=CCC[C@H]1CC=O	
InChI=1S/C8H12O/c1-7-3-2-4-8(7)5-6-9/h3,6,8H,2,4-5H2,1H3	InChI=1S/C8H12O/c1-7-3-2-4-8(7)5-6-9/h3,6,8H,2,4-5H2,1H3/t8-/m0/s1
