22
gdb 101945	2.04988	1.36304	0.88612	1.8559	82.48	-0.2381	0.0807	0.3188	1365.3221	0.192811	-404.292438	-404.282735	-404.281791	-404.327456	35.676	
C	-0.4204081902	 1.9626725751	-0.2087248358	-0.397713
C	-0.0192176646	 0.5172649813	 0.0970352903	-0.171905
C	-1.1811059561	-0.4864891826	 0.1485935268	 0.006728
C	-0.6329676719	-1.8897149643	 0.3322287227	 0.104876
C	-1.1549105532	-3.0504903937	-0.3987040354	-0.185498
O	 0.0785939902	-2.4361481881	-0.7785366732	-0.242242
N	-2.0741742674	-0.2022110909	 1.2729013388	-0.071558
C	-3.2113759065	 0.678720183	 1.0277565343	-0.216446
C	-3.4136774517	-0.7824058688	 1.2124765332	-0.227162
H	 0.4679540151	 2.5953867717	-0.3000638502	 0.113574
H	-0.9726871791	 2.033579487	-1.1528886202	 0.109873
H	-1.0466018515	 2.38575795	 0.5813237415	 0.126845
H	 0.6791893556	 0.1594902674	-0.6677506047	 0.115628
H	 0.5099813917	 0.4763629497	 1.0569437064	 0.101884
H	-1.7208826717	-0.4569253918	-0.8175328363	 0.053612
H	-0.1613429153	-2.0628872811	 1.3009423213	 0.098857
H	-1.0683074782	-4.047767469	 0.0304058134	 0.115467
H	-1.9744765616	-2.9191876031	-1.1044685876	 0.109652
H	-3.4490294675	 1.3776915063	 1.8247505823	 0.11709
H	-3.3471155919	 1.0717067617	 0.0219240357	 0.113485
H	-3.6841828717	-1.3580066851	 0.3288985179	 0.108557
H	-3.8010267226	-1.1764501444	 2.1475041388	 0.116398
74.7071	88.2785	105.7031	165.1879	179.5336	214.5206	280.9954	327.2179	361.0716	420.5799	479.4412	510.1047	727.7484	800.5456	847.2134	858.9478	883.7396	899.8841	915.0223	972.7746	1005.1189	1029.9388	1044.5663	1081.326	1110.1875	1113.137	1122.198	1135.2269	1153.8638	1169.035	1175.6673	1184.0942	1200.3715	1281.9524	1284.7678	1300.8437	1316.3901	1360.5934	1389.0397	1409.5341	1447.42	1480.4511	1490.4439	1499.3257	1507.2559	1518.163	1528.9598	2914.2117	3031.7534	3034.2039	3073.7448	3079.1605	3096.0759	3097.4593	3100.8862	3101.9897	3116.834	3165.6207	3177.492	3191.8815
CCC(C1CO1)N1CC1	CC[C@@H]([C@H]1CO1)N1CC1	
InChI=1S/C7H13NO/c1-2-6(7-5-9-7)8-3-4-8/h6-7H,2-5H2,1H3	InChI=1S/C7H13NO/c1-2-6(7-5-9-7)8-3-4-8/h6-7H,2-5H2,1H3/t6-,7+/m0/s1
