16
gdb 56043	3.57997	0.91411	0.8322	3.8754	75.15	-0.2482	-0.0506	0.1977	1384.3975	0.122689	-434.0982	-434.088681	-434.087737	-434.133227	33.575	
C	 0.7052443978	 0.7189114184	-0.5608185525	-0.472616
C	-0.1692185252	 0.1183018973	 0.5099092261	 0.391524
O	 0.1212612915	 0.1539511145	 1.6899007511	-0.308969
C	-1.4377954325	-0.6122410262	 0.0462167333	-0.268566
N	-1.1517043296	-2.030811761	-0.1607013869	-0.286823
C	-1.0304578031	-2.7665136431	 0.883368484	 0.267861
N	-1.0989950462	-2.4028734809	 2.2029726146	-0.552109
C	-0.8451196306	-4.1907617805	 0.6592639015	 0.278506
N	-0.6952201636	-5.3280591285	 0.5194645728	-0.316812
H	 0.9353344376	-0.0445159832	-1.3125186308	 0.165664
H	 0.1611330016	 1.5173698953	-1.078924948	 0.149524
H	 1.6237640237	 1.1166694158	-0.1287076208	 0.146953
H	-2.2120031952	-0.4558812716	 0.8114014437	 0.125844
H	-1.7899196353	-0.2022478113	-0.904075537	 0.118523
H	-0.8263904706	-1.4504721101	 2.4265068333	 0.288785
H	-0.8815024202	-3.104187775	 2.8925013555	 0.27271
48.6446	86.719	140.6185	159.1463	176.8329	225.1971	288.3282	374.573	410.6291	477.395	494.1218	535.6581	584.2165	627.4936	648.6931	725.6827	799.9266	841.496	923.3074	986.3068	1049.2735	1075.1873	1149.6668	1212.4208	1259.3225	1342.6103	1368.5688	1382.5222	1459.3115	1470.6281	1497.8482	1648.7191	1699.573	1784.1657	2359.8114	3001.5725	3036.3539	3088.9613	3097.7819	3157.7628	3484.556	3672.4478
CC(=O)CN=C(N)C#N	CC(=O)CN=C(N)C#N	
InChI=1S/C5H7N3O/c1-4(9)3-8-5(7)2-6/h3H2,1H3,(H2,7,8)	InChI=1S/C5H7N3O/c1-4(9)3-8-5(7)2-6/h3H2,1H3,(H2,7,8)
