23
gdb 94702	3.1303	1.17891	1.01568	1.4596	85.09	-0.253	0.0766	0.3296	1278.1367	0.207259	-388.300461	-388.291604	-388.29066	-388.333311	35.759	
C	-0.0476879113	 1.5283698069	 0.0208358319	-0.461631
C	-0.0202145907	 0.0124474303	 0.0235474729	 0.358884
C	-0.8434224365	-0.6937432793	 1.0707684787	-0.324499
C	 0.6678111808	-0.6887476372	 1.1827252302	-0.068018
C	 1.4527981308	-1.9836804896	 0.9788684623	-0.223478
C	 1.7397483312	-2.3038130854	-0.4898700786	 0.146723
O	 2.2010494569	-3.6490806252	-0.5272308628	-0.44254
C	 0.4969263723	-2.0865391803	-1.3568080351	-0.248652
C	 0.1000102342	-0.6040766112	-1.365684351	-0.270554
H	 0.8682233466	 1.9421619831	-0.4182022296	 0.110994
H	-0.8947605065	 1.906738139	-0.5646773908	 0.112206
H	-0.1418604152	 1.9286671406	 1.0352611961	 0.110694
H	-1.4166668524	-0.0861535842	 1.7637839203	 0.101645
H	-1.3193528739	-1.6355441268	 0.8147620737	 0.105743
H	 1.0726084596	-0.0315529388	 1.9468661922	 0.076996
H	 2.402531347	-1.9355573014	 1.5200429659	 0.102065
H	 0.9049175279	-2.8375023514	 1.3958226022	 0.108596
H	 2.5299012291	-1.6230718732	-0.8528511985	 0.057794
H	 2.3921168736	-3.8711022331	-1.4441286807	 0.276384
H	 0.6987233373	-2.4151839514	-2.3846283033	 0.080129
H	-0.3165859927	-2.7197857605	-0.9819698243	 0.104034
H	-0.837912102	-0.4636740958	-1.9184059608	 0.094091
H	 0.8658317341	-0.0444276051	-1.9214497711	 0.092394
95.3685	196.0992	234.9881	250.6054	290.8279	307.8586	345.8818	353.1223	386.1477	439.874	470.7378	518.2634	606.1242	684.2099	771.4744	836.845	879.8957	895.9705	902.7341	925.1814	957.0489	1021.4838	1034.0752	1043.9923	1064.1179	1074.3076	1093.788	1124.3576	1130.227	1147.3312	1182.2312	1229.7318	1247.7393	1251.866	1301.8282	1321.2681	1337.9599	1347.2929	1375.5515	1403.6096	1415.661	1418.9306	1437.0037	1486.9097	1488.0365	1490.3971	1493.7267	1502.8886	1514.5226	2940.6325	3001.9728	3017.0404	3020.0966	3034.398	3037.8543	3064.3984	3074.5853	3080.3131	3095.9513	3120.3191	3142.023	3202.5087	3814.0898
CC12CC1CC(O)CC2	C[C@]12C[C@H]1C[C@@H](O)CC2	
InChI=1S/C8H14O/c1-8-3-2-7(9)4-6(8)5-8/h6-7,9H,2-5H2,1H3	InChI=1S/C8H14O/c1-8-3-2-7(9)4-6(8)5-8/h6-7,9H,2-5H2,1H3/t6-,7+,8+/m1/s1
