18
gdb 37414	3.55436	1.80961	1.70092	2.6168	72.81	-0.2348	0.0678	0.3026	856.4512	0.152227	-401.890273	-401.884559	-401.883615	-401.919991	25.574	
C	 0.0052705646	 1.6055794135	-0.0974664237	-0.208429
C	 1.5333332813	 1.7982599984	-0.0229936554	 0.051636
O	 1.9378393103	 0.964952287	-1.1612498401	-0.299444
C	 1.5646737452	-0.1247380586	-0.296946529	 0.089702
C	 2.0642420791	 0.6635812963	 0.9357320969	-0.033933
C	 1.2781729389	 0.1512706836	 2.1299983069	-0.062137
N	 0.0284525889	 0.8481496297	 2.4912532205	-0.336023
C	-0.0216641126	-0.3078348988	 1.5616433746	-0.047815
C	 0.0268582358	 0.0592100234	 0.0663324135	-0.083588
H	-0.5635595784	 2.1133195546	 0.6767538544	 0.128818
H	-0.3334728203	 1.9070238241	-1.0907584584	 0.097287
H	 1.9529732773	 2.8036203239	-0.0391326684	 0.078646
H	 1.9293017712	-1.1048060845	-0.6069809188	 0.077354
H	 3.1463393899	 0.7021325612	 1.0504802515	 0.077748
H	 1.8086299903	-0.3987831666	 2.9005357307	 0.087993
H	-0.2600800222	 0.5356698731	 3.4160876688	 0.229858
H	-0.5171359731	-1.2153269512	 1.8892858982	 0.086716
H	-0.6836905561	-0.489031899	-0.5506031222	 0.065612
240.1873	353.5287	474.0678	513.0047	539.9075	618.0566	674.8319	733.7454	775.1064	819.8417	836.5217	854.7058	861.1735	877.9172	917.1651	922.8522	936.9155	947.6035	984.8646	998.809	1035.3531	1054.0655	1081.7552	1089.1552	1130.3298	1143.733	1172.5525	1194.7162	1216.1302	1220.0259	1235.8143	1272.2779	1293.0532	1305.6162	1320.8753	1352.7339	1367.8553	1411.2274	1469.5173	3084.1604	3111.8493	3124.1772	3125.1357	3135.8192	3158.0229	3169.9696	3174.1223	3488.9898
C1C2OC3C2C2NC2C13	C1[C@@H]2O[C@H]3[C@@H]2[C@H]2N[C@H]2[C@@H]13	
InChI=1S/C7H9NO/c1-2-5-6(8-5)4-3(1)9-7(2)4/h2-8H,1H2	InChI=1S/C7H9NO/c1-2-5-6(8-5)4-3(1)9-7(2)4/h2-8H,1H2/t2-,3+,4+,5+,6-,7-/m1/s1
