23
gdb 122998	4.5011	0.60396	0.58048	1.311	83.85	-0.2506	0.0886	0.3392	2024.0201	0.202703	-425.406338	-425.395432	-425.394488	-425.443657	38.491	
C	-0.1579660305	 1.5340237438	-0.0250749952	-0.384325
C	-0.1125126151	 0.0342787118	-0.2644492154	-0.029175
O	-1.3477946471	-0.5235631251	 0.1332042745	-0.243667
C	-1.4149264897	-1.9203572139	-0.0526920054	-0.051198
C	-2.7992132279	-2.3877972048	 0.3903943404	-0.276322
C	-3.0294905689	-3.8719629662	 0.1699555773	 0.420071
C	-2.2096549127	-4.8337851843	 1.0048016966	-0.461072
C	-4.3211815322	-4.3194797917	-0.3734704548	-0.22951
O	-3.166220865	-4.2487954975	-1.2126433934	-0.277207
H	 0.7867488179	 1.9975485543	-0.3246748165	 0.113597
H	-0.9673920689	 1.9897426054	-0.6024290701	 0.126443
H	-0.3302617669	 1.7487201082	 1.0335013328	 0.125007
H	 0.0774147059	-0.1822659793	-1.3295970562	 0.086261
H	 0.7136995938	-0.4238006133	 0.3064596102	 0.082659
H	-1.256942613	-2.1824421498	-1.1115258084	 0.103333
H	-0.6211675575	-2.4187536282	 0.5290988186	 0.081859
H	-2.9381928745	-2.1440564669	 1.4505133301	 0.105465
H	-3.5433775391	-1.8174168817	-0.1737030486	 0.111712
H	-2.3938283528	-4.6742635172	 2.0727914498	 0.121576
H	-2.464274439	-5.8671956493	 0.7576531834	 0.126726
H	-1.1380786668	-4.699602356	 0.826523025	 0.129092
H	-4.6791379378	-5.3255388752	-0.1558166992	 0.108257
H	-5.1011834922	-3.5894548632	-0.5871671155	 0.110419
43.9219	49.9629	100.5396	111.6802	136.7264	194.4929	214.8111	246.8171	320.2276	357.1147	373.9243	426.3464	452.4933	533.5938	733.8415	794.9981	821.0932	844.7821	897.3415	916.8356	936.6839	994.0737	1040.1033	1063.7235	1087.046	1112.0556	1135.54	1153.1607	1167.1424	1172.3784	1188.1039	1233.8821	1279.5171	1295.8916	1307.219	1327.7985	1388.0526	1401.6536	1410.7611	1422.2813	1452.2439	1476.2147	1483.1203	1489.7137	1498.9331	1499.8604	1518.4487	1531.4074	1541.3538	2948.041	2962.7528	2974.8937	2992.2279	3037.1967	3042.1409	3044.3921	3075.9829	3092.0609	3102.4472	3118.6857	3120.8098	3123.692	3160.9517
CCOCCC1(C)CO1	CCOCC[C@@]1(C)CO1	
InChI=1S/C7H14O2/c1-3-8-5-4-7(2)6-9-7/h3-6H2,1-2H3	InChI=1S/C7H14O2/c1-3-8-5-4-7(2)6-9-7/h3-6H2,1-2H3/t7-/m0/s1
