25
gdb 123262	10.81546	0.3479	0.34207	0.3951	88.14	-0.25	0.0806	0.3306	3145.533	0.226582	-426.616192	-426.604174	-426.60323	-426.655086	40.939	
C	 0.0215886282	 1.4035366787	 0.0093343823	-0.226401
O	 0.0228488361	-0.0019790155	 0.0017566978	-0.230294
C	-1.2764944607	-0.5533109543	 0.0113054611	-0.049737
C	-1.1648328902	-2.0715540349	 0.0019975914	-0.19787
C	-2.5286882641	-2.7685275586	 0.0113843125	-0.181367
C	-2.4230872459	-4.2976515035	 0.0020876907	-0.184086
C	-3.7861799963	-4.9951560065	 0.0114674142	-0.165981
C	-3.6780307635	-6.5138639946	 0.0022017513	-0.073511
O	-4.9935872917	-7.0490364995	 0.012109994	-0.421868
H	 1.0634239039	 1.7337743829	 0.0010640374	 0.12453
H	-0.4889584136	 1.819035478	-0.8748033225	 0.100704
H	-0.4717672529	 1.8094430793	 0.9075756565	 0.100704
H	-1.8301406161	-0.213576615	 0.9048965501	 0.081157
H	-1.8472432331	-0.2039672408	-0.8677012792	 0.081156
H	-0.5929525699	-2.3734096015	-0.8840473879	 0.103736
H	-0.5759874013	-2.3829377672	 0.8735140424	 0.103737
H	-3.0981635083	-2.4514741148	 0.8959520915	 0.095351
H	-3.1150914015	-2.4419763417	-0.8585471191	 0.09535
H	-1.8533317029	-4.6143839033	-0.8825273469	 0.094407
H	-1.836398596	-4.6238839129	 0.8720602761	 0.09441
H	-4.3588607146	-4.693862511	 0.897413921	 0.10341
H	-4.3758311669	-4.6843389953	-0.8599364408	 0.103404
H	-3.1214958432	-6.8413309367	-0.8917399059	 0.082385
H	-3.1042462178	-6.8509176993	 0.881559451	 0.082384
H	-4.9275585177	-8.008222602	 0.005899681	 0.284291
42.1418	64.6889	69.8807	96.8663	121.2036	149.5152	164.9356	169.7707	239.2417	244.6358	267.461	308.073	434.4714	463.0251	526.4914	739.2538	761.677	813.5436	899.8892	969.5567	1005.4535	1006.4452	1017.4514	1058.4838	1069.9083	1073.0787	1104.3097	1165.548	1175.2225	1193.682	1212.452	1215.7918	1236.9559	1259.5439	1277.0239	1302.7416	1312.65	1320.1553	1325.8554	1337.5891	1375.8232	1404.8245	1428.5384	1463.9471	1481.7925	1485.1194	1487.0834	1489.3135	1498.2638	1505.1088	1512.9602	1530.0282	1533.9352	2937.7928	2956.2047	2962.6333	2964.9962	2980.6455	3003.8447	3004.8185	3010.0983	3026.6729	3029.074	3032.0588	3044.9174	3071.8915	3078.6976	3110.3548	3829.7385
COCCCCCCO	COCCCCCCO	
InChI=1S/C7H16O2/c1-9-7-5-3-2-4-6-8/h8H,2-7H2,1H3	InChI=1S/C7H16O2/c1-9-7-5-3-2-4-6-8/h8H,2-7H2,1H3
