16
gdb 82732	2.79958	1.9492	1.48933	3.1781	66.94	-0.2558	-0.0214	0.2344	889.1003	0.125815	-437.8667	-437.859919	-437.858975	-437.897752	27.257	
O	 0.1005969827	 1.3912768658	 0.2717640207	-0.441256
C	-0.0039807445	 0.0070469175	 0.094911003	 0.065371
C	-1.4210863987	-0.5348014607	-0.1065489458	-0.094887
C	-2.0161721084	-0.0431080635	-1.468041907	-0.254495
C	-1.4673719418	-1.323146443	-2.1177513351	-0.0436
C	-1.1452180288	-1.9060850684	-0.7899068729	-0.065644
N	-0.0462592914	-1.5886186543	-1.7205848247	-0.144355
C	 0.6243329207	-0.4300874192	-1.2359999735	 0.35374
O	 1.4867245124	 0.178016134	-1.8106798898	-0.327925
H	 0.8388920069	 1.674674409	-0.2882641995	 0.295417
H	 0.4806244863	-0.5427257381	 0.921678022	 0.09616
H	-2.069764542	-0.4939750398	 0.7654890433	 0.092125
H	-3.1078297587	-0.0671527342	-1.4578394585	 0.119011
H	-1.6761571109	 0.9262375729	-1.841590546	 0.124419
H	-1.7955573551	-1.7944241229	-3.0358266773	 0.115236
H	-1.2310363885	-2.911963925	-0.3999724589	 0.110683
114.3007	215.1943	269.3179	360.1452	417.4791	499.7823	537.8776	579.9074	646.8913	682.9975	773.1386	817.1882	845.4006	873.5744	899.7879	922.6727	951.4874	971.8559	1030.7061	1041.5632	1063.43	1111.0887	1126.2744	1152.9214	1179.5875	1213.574	1225.1572	1257.4681	1265.933	1315.0802	1330.6965	1368.7943	1415.6161	1492.8485	1854.5658	2947.23	3068.0055	3124.2454	3144.5252	3191.553	3206.6708	3719.8762
OC1C2CC3C2N3C1=O	O[C@H]1[C@H]2C[C@@H]3[C@H]2N3C1=O	
InChI=1S/C6H7NO2/c8-5-2-1-3-4(2)7(3)6(5)9/h2-5,8H,1H2	InChI=1S/C6H7NO2/c8-5-2-1-3-4(2)7(3)6(5)9/h2-5,8H,1H2/t2-,3+,4-,5-,7?/m0/s1
