17
gdb 57157	2.00746	1.45136	1.0097	4.4764	76.67	-0.2543	-0.0718	0.1825	1217.6333	0.130968	-421.826143	-421.815805	-421.81486	-421.862749	35.802	
C	-0.2199061554	 1.8934143119	 1.1134202373	-0.395437
C	-0.0536186691	 0.5858508791	 0.3376585756	-0.202132
C	 0.7791378886	-0.4391661037	 1.1563222744	 0.393785
C	 1.7771886063	-1.2750744958	 0.3862827562	-0.488564
O	 0.6250931262	-0.534253912	 2.3482666383	-0.287437
C	-1.4179194444	-0.0395319574	 0.0220039803	 0.224884
O	-2.4394998129	 0.3141427875	 0.5642758898	-0.278066
C	-1.4236018727	-1.0899860643	-0.9843201939	 0.277028
C	-1.4352657462	-1.9485755854	-1.8286207023	-0.405674
H	 0.7533017313	 2.3645202289	 1.2764229079	 0.113647
H	-0.8603887777	 2.5878182676	 0.5651152712	 0.125352
H	-0.6758077742	 1.6921101064	 2.0829012306	 0.160519
H	 0.4553381099	 0.7423077851	-0.6207482607	 0.100756
H	 1.2857234037	-1.7718565049	-0.4564513433	 0.151494
H	 2.5508952455	-0.6226205984	-0.0363133049	 0.144523
H	 2.2387750892	-2.0110807568	 1.0453829697	 0.145648
H	-1.4665114283	-2.7102108076	-2.5700390961	 0.219676
20.8662	66.6142	128.4935	158.4896	174.1524	182.5917	244.1441	269.2624	281.9642	356.8631	476.5422	535.318	587.3338	609.1472	649.0492	676.289	707.6066	787.9348	816.7807	953.0747	989.2597	1043.7625	1066.1693	1097.048	1134.5136	1190.518	1259.0245	1350.2392	1381.5825	1407.8092	1463.2046	1474.7031	1484.9158	1491.4847	1764.39	1824.2251	2207.7393	3035.5813	3045.6631	3057.9357	3101.4118	3127.6505	3155.6296	3159.4896	3491.6453
CC(C(C)=O)C(=O)C#C	C[C@@H](C(=O)C)C(=O)C#C	
InChI=1S/C7H8O2/c1-4-7(9)5(2)6(3)8/h1,5H,2-3H3	InChI=1S/C7H8O2/c1-4-7(9)5(2)6(3)8/h1,5H,2-3H3/t5-/m0/s1
