18
gdb 106241	2.68838	1.27575	1.04081	4.3358	72.71	-0.2443	0.0078	0.2521	1188.24	0.14677	-439.074835	-439.065878	-439.064934	-439.108543	33.278	
C	 0.2427734597	 1.7328773591	 0.4008031914	-0.424446
C	 0.0663090365	 0.234717917	 0.5020538128	-0.05839
C	 1.0223823544	-0.8021031733	-0.1170610144	-0.29165
C	 2.4471229266	-0.3302672584	 0.1129108386	 0.425844
O	 3.4001417774	-0.0660609044	-0.5624593455	-0.343971
N	 2.2575136314	-0.2906429843	 1.5130845598	-0.40123
C	 0.8468337059	-0.6868542887	 1.392979691	 0.320241
C	 0.2834106151	-1.691229883	 2.3669713648	-0.176678
O	-1.0056699304	-2.1467721315	 1.9951034331	-0.402913
H	 1.2829966598	 2.0357898601	 0.5472739106	 0.12845
H	-0.0685966578	 2.0915614128	-0.5851836097	 0.134133
H	-0.3669049605	 2.2477572283	 1.1515494372	 0.117675
H	-0.9625700901	-0.0998899231	 0.3758170622	 0.096397
H	 0.6800915565	-1.5706723513	-0.7954963135	 0.12118
H	 2.5848450188	 0.4785850507	 2.0879954934	 0.237723
H	 0.9363997962	-2.5700528512	 2.3890705891	 0.130591
H	 0.2840012479	-1.2650009106	 3.3827935796	 0.096324
H	-1.6440448573	-1.4692767482	 2.2374869093	 0.29072
76.0022	135.5539	173.1222	183.7402	206.5676	266.7943	298.2633	396.126	417.1989	492.6541	524.2701	619.3757	678.277	725.9944	737.0771	801.6026	886.1459	927.0465	960.0918	995.6813	1032.1171	1055.3343	1082.6397	1102.8972	1116.5428	1140.1042	1204.2987	1220.9892	1246.4935	1305.7876	1331.4233	1392.4963	1406.7919	1418.2876	1459.516	1490.2572	1499.1383	1503.8863	1897.5298	2979.3072	3036.1199	3074.245	3098.3212	3110.8902	3130.1416	3223.5285	3535.1835	3828.5334
CC1C2C(=O)NC12CO	C[C@H]1[C@H]2C(=O)N[C@@]12CO	
InChI=1S/C6H9NO2/c1-3-4-5(9)7-6(3,4)2-8/h3-4,8H,2H2,1H3,(H,7,9)	InChI=1S/C6H9NO2/c1-3-4-5(9)7-6(3,4)2-8/h3-4,8H,2H2,1H3,(H,7,9)/t3-,4-,6-/m0/s1
