23
gdb 96557	2.20389	1.56121	1.08973	1.5558	82.51	-0.2411	0.0811	0.3222	1221.8836	0.206303	-425.429117	-425.419912	-425.418968	-425.46261	35.911	
C	-0.1239416177	 1.5187463463	-0.04743657	-0.415466
C	 0.0453412216	 0.001201943	-0.0173515894	 0.096191
O	 0.6584812575	-0.395267984	-1.2369940831	-0.25393
C	 0.1714852469	-1.6190159656	-1.7605452141	-0.076377
C	 0.6149247433	-2.8551360913	-0.9765829917	-0.1952
C	 0.3276225199	-2.7812583945	 0.5277816285	-0.080164
O	 1.1886799236	-1.8666957084	 1.1766180466	-0.270002
C	 0.8415236831	-0.485020526	 1.218041576	 0.153031
C	 2.1668009278	 0.2442740379	 1.420160371	-0.39659
H	 0.832005955	 2.0100135034	-0.2446243452	 0.133411
H	-0.8182591566	 1.797934481	-0.8441080858	 0.119254
H	-0.5190531532	 1.8920702932	 0.9026921359	 0.114063
H	-0.9593162366	-0.4459869095	 0.0336313063	 0.065543
H	-0.930602917	-1.5866820661	-1.8085735878	 0.084247
H	 0.541646998	-1.6730459377	-2.7895077724	 0.105152
H	 0.1145409466	-3.7349940278	-1.4033260198	 0.089217
H	 1.6942806906	-3.0001264433	-1.0963583763	 0.113508
H	-0.7333011414	-2.5620330468	 0.7245120305	 0.086857
H	 0.5386519415	-3.7548918427	 0.9836978677	 0.104038
H	 0.1882055837	-0.3072438801	 2.0911276782	 0.060234
H	 2.7582859242	 0.2055760331	 0.5012225324	 0.131067
H	 2.0154288905	 1.288654672	 1.7038036	 0.110124
H	 2.7295996284	-0.250617616	 2.2153254926	 0.121792
75.9458	148.4396	226.789	234.7729	267.5653	295.4479	302.1198	337.5042	356.3398	398.6678	441.5964	521.4039	563.2169	653.4096	759.7284	818.0846	846.1163	907.0811	915.1748	962.2221	982.4704	1005.7333	1019.2799	1082.8539	1102.8087	1133.3699	1144.0224	1154.4741	1174.1099	1209.3305	1250.997	1283.8641	1315.2488	1342.8118	1358.9935	1376.9359	1388.1403	1390.1912	1407.7318	1413.4482	1414.8214	1430.6517	1462.2996	1482.2356	1488.6063	1496.8808	1498.835	1505.842	1511.0897	2936.2993	2957.0782	2973.7178	2993.1313	3022.1208	3045.8154	3050.972	3061.4866	3070.4321	3082.0353	3116.8009	3126.1517	3128.5666	3132.1254
CC1OCCCOC1C	C[C@H]1OCCCO[C@H]1C	
InChI=1S/C7H14O2/c1-6-7(2)9-5-3-4-8-6/h6-7H,3-5H2,1-2H3	InChI=1S/C7H14O2/c1-6-7(2)9-5-3-4-8-6/h6-7H,3-5H2,1-2H3/t6-,7+
