19
gdb 64495	3.43536	1.31437	1.14648	2.2953	75.36	-0.2403	0.0812	0.3215	1114.5522	0.158486	-422.924199	-422.91623	-422.915286	-422.956691	31.3	
C	-0.0091504486	 1.4185227686	-0.5626464903	-0.517855
C	 0.1138863283	-0.0693068933	-0.2432264729	 0.327787
C	-1.1060072799	-0.8590474679	-0.6761688859	 0.023597
C	-2.4586140097	-0.2902260446	-0.765612677	-0.197813
O	-1.687347372	-0.5188301057	-1.945127601	-0.241805
C	 1.4763804714	-0.8202772112	-0.4859435886	 0.009796
C	 2.1322526446	-0.0577709817	 0.6899564974	-0.239852
C	 0.7309183937	-0.5495244594	 1.1175017481	 0.007924
O	 1.0529680214	-1.8539099613	 0.4888423034	-0.310981
H	 0.9504794414	 1.9356416949	-0.5676342699	 0.119705
H	-0.4599676627	 1.5368957321	-1.5513900654	 0.149463
H	-0.6522303407	 1.9252222602	 0.1647730561	 0.120804
H	-1.0226203814	-1.9275807227	-0.5052123229	 0.114859
H	-3.3194889188	-0.9449147173	-0.6353640534	 0.115887
H	-2.636166466	 0.7552491128	-0.5213913957	 0.110012
H	 1.91324258	-1.1669697279	-1.4233116559	 0.100266
H	 2.9513102739	-0.5991232403	 1.1631744783	 0.112528
H	 2.328055008	 1.010640582	 0.6056178555	 0.102432
H	 0.2740729771	-0.5712396873	 2.1085954402	 0.093246
76.5226	173.0038	189.0635	249.939	294.8393	339.9067	421.0721	473.0738	526.1329	629.0256	677.2479	748.5849	787.6496	847.6004	862.3682	874.9823	890.0403	919.0024	955.1211	1007.0341	1025.6841	1034.6598	1099.0019	1106.9254	1121.9824	1137.83	1158.53	1170.1595	1188.9936	1195.8233	1206.5976	1238.6946	1281.4024	1282.4108	1306.9468	1405.3119	1426.5971	1487.3733	1495.0148	1520.4445	1530.9075	3046.2774	3087.5685	3088.2663	3103.6086	3112.9182	3116.5228	3141.718	3164.6528	3165.5835	3176.8162
CC1(C2CO2)C2CC1O2	C[C@@]1([C@H]2CO2)[C@H]2C[C@@H]1O2	
InChI=1S/C7H10O2/c1-7(6-3-8-6)4-2-5(7)9-4/h4-6H,2-3H2,1H3	InChI=1S/C7H10O2/c1-7(6-3-8-6)4-2-5(7)9-4/h4-6H,2-3H2,1H3/t4-,5+,6-,7-/m1/s1
