21
gdb 111505	2.75232	1.40271	1.17768	2.0887	77.96	-0.2515	0.0685	0.32	1147.3774	0.18376	-424.213565	-424.204997	-424.204052	-424.24666	33.375	
C	-0.5807876854	 1.681503048	-0.1369920241	-0.248785
O	-0.1427088999	 0.3369495959	-0.2183359272	-0.259663
C	-1.160698763	-0.6202735816	 0.0549909396	 0.099791
C	-0.8427957332	-1.9694724269	-0.5523893114	-0.065092
C	 0.2113594213	-2.8291876795	 0.1084612081	-0.28544
C	-1.2410763197	-3.034558324	 0.4476411895	-0.038143
C	-1.7725838609	-2.3411285842	 1.6986149941	-0.228491
C	-1.3197191848	-0.8722271578	 1.5901505194	 0.077619
O	-0.0775873553	-0.6805452331	 2.2495301627	-0.44172
H	 0.2686377253	 2.3127159893	-0.4086072214	 0.131769
H	-1.4060935946	 1.8738374271	-0.837646875	 0.114494
H	-0.9133400542	 1.951553785	 0.8753812537	 0.11819
H	-2.1139639021	-0.2561796924	-0.357204206	 0.067707
H	-1.0176051582	-2.0938916945	-1.6149292126	 0.081291
H	 0.6814177109	-3.5736189642	-0.5251773984	 0.10541
H	 0.8585132131	-2.3925716986	 0.8579241441	 0.130393
H	-1.7280750213	-3.9460499988	 0.1191865831	 0.079557
H	-2.8677169991	-2.3909053843	 1.7113852827	 0.093953
H	-1.4104045686	-2.7789554501	 2.6339638946	 0.113708
H	-2.0678488616	-0.1965759643	 2.0284197923	 0.063946
H	 0.4516628113	-0.1318105812	 1.6522560021	 0.289505
88.3599	115.6126	178.5004	214.1242	295.3121	321.818	356.29	390.7945	473.766	517.5333	557.5733	649.2093	772.094	790.1318	826.6284	834.6402	879.1823	925.5495	961.1609	1000.0671	1016.8955	1041.8966	1075.4658	1081.9468	1091.7595	1114.6732	1128.9858	1148.6885	1183.5577	1206.2534	1222.1389	1227.0246	1246.8441	1317.7473	1330.2253	1348.0231	1380.4218	1383.4115	1403.6039	1422.6009	1477.3931	1481.4866	1490.5063	1490.8143	1508.5175	2980.2774	2986.9389	2998.9432	3039.733	3042.183	3086.6545	3118.0085	3142.2035	3165.1113	3175.8995	3238.4562	3717.5016
COC1C2CC2CC1O	CO[C@H]1[C@H]2C[C@H]2C[C@H]1O	
InChI=1S/C7H12O2/c1-9-7-5-2-4(5)3-6(7)8/h4-8H,2-3H2,1H3	InChI=1S/C7H12O2/c1-9-7-5-2-4(5)3-6(7)8/h4-8H,2-3H2,1H3/t4-,5-,6+,7-/m0/s1
