16
gdb 25754	2.673	1.56439	0.99296	4.0879	73.67	-0.2271	0.0016	0.2287	1132.9241	0.126008	-434.159079	-434.150469	-434.149525	-434.192539	31.339	
C	-0.0054525682	 1.5392363191	 0.1416549224	-0.519994
C	 0.0144631926	 0.0582464165	-0.0209723501	 0.24418
C	 0.0048888605	-0.7553775284	-1.1338998854	 0.130376
N	 0.0332074826	-2.0902994676	-0.7666513562	-0.333792
C	 0.0592871646	-2.0920468466	 0.5399393021	 0.001245
N	 0.0492953478	-0.8185955946	 1.0395664666	-0.299363
C	-0.0300881937	-0.3370150751	-2.5544622464	 0.324395
N	-0.0310001552	-1.38187206	-3.4242882343	-0.534578
O	-0.0539674924	 0.8346020841	-2.9086900872	-0.388507
H	 0.8844970333	 1.8984086441	 0.6724566125	 0.12729
H	-0.0321812341	 1.9920835539	-0.8493069294	 0.191606
H	-0.8844345155	 1.8707707455	 0.707552989	 0.127291
H	 0.0856622795	-2.9626477845	 1.1781423027	 0.135535
H	 0.0646494855	-0.5600469888	 2.0127242824	 0.267386
H	-0.0078302339	-2.3247956472	-3.0731930645	 0.27124
H	-0.0509001735	-1.1928941106	-4.4110032843	 0.255688
69.8147	129.928	181.2093	203.805	204.1597	273.5282	311.7191	422.1125	505.0335	556.9294	607.1719	660.8285	669.7492	694.4074	696.2429	804.7425	819.558	955.3392	996.7956	1070.5408	1084.5644	1103.879	1145.8134	1241.8609	1266.0478	1371.6056	1381.0488	1410.5463	1449.9787	1483.7467	1500.2648	1539.7938	1590.2604	1631.8437	1766.7268	3023.4648	3072.0151	3159.316	3250.9192	3600.8359	3655.4396	3747.5832
CC1=C(N=CN1)C(N)=O	Cc1c(nc[nH]1)C(=O)N	
InChI=1S/C5H7N3O/c1-3-4(5(6)9)8-2-7-3/h2H,1H3,(H2,6,9)(H,7,8)	InChI=1S/C5H7N3O/c1-3-4(5(6)9)8-2-7-3/h2H,1H3,(H2,6,9)(H,7,8)
