16
gdb 74062	2.77285	1.286	0.94207	6.2045	80.94	-0.2204	-0.0163	0.2041	1212.2343	0.123841	-400.761291	-400.752629	-400.751684	-400.79488	32.622	
N	 0.0487054509	 1.3613603644	-0.1897276158	-0.575584
C	-0.0496972779	 0.0159886371	-0.0537108966	 0.398636
C	-1.1728683979	-0.7454263696	-0.0438879348	-0.330178
C	-0.8507136593	-2.1555354358	 0.068745959	 0.399711
O	-1.5964215737	-3.1054748018	 0.1252942706	-0.354237
C	 0.718984503	-2.2720142237	 0.0721320254	-0.285643
C	 1.2133095704	-0.8046596478	 0.0736229707	-0.331818
C	 1.2252182308	-3.0758691095	 1.170104354	 0.338422
C	 1.6441433435	-3.7211195459	 2.0936455587	-0.471136
H	 0.9195686332	 1.8182026501	 0.0220623532	 0.26448
H	-0.7779660591	 1.9318386056	-0.1235335077	 0.267563
H	-2.1912814974	-0.3848497951	-0.1058272978	 0.096251
H	 0.9827517396	-2.7559787002	-0.8762179145	 0.12892
H	 1.9038794941	-0.5922698792	-0.7499752704	 0.125322
H	 1.7363491508	-0.560002866	 1.0045265868	 0.134293
H	 2.002547749	-4.3066708225	 2.9033669793	 0.194998
47.4576	136.2629	158.4438	229.6632	290.4098	330.4181	400.7857	453.7206	464.6591	530.2086	557.0204	592.4974	611.1685	627.6251	641.8856	694.8104	810.7793	854.9374	895.6683	929.8531	1024.3411	1069.6585	1081.6693	1170.1967	1184.2754	1209.4045	1273.6732	1298.1868	1330.467	1413.3908	1476.9779	1638.2484	1682.7661	1810.4161	2237.6943	3033.5218	3042.6379	3080.442	3217.9362	3506.4305	3602.3578	3716.8359
NC1=CC(=O)C(C1)C#C	NC1=CC(=O)[C@@H](C1)C#C	
InChI=1S/C7H7NO/c1-2-5-3-6(8)4-7(5)9/h1,4-5H,3,8H2	InChI=1S/C7H7NO/c1-2-5-3-6(8)4-7(5)9/h1,4-5H,3,8H2/t5-/m1/s1
