18
gdb 27246	3.16823	1.5077	1.04474	2.2118	79.9	-0.1796	0.0444	0.224	1132.9529	0.149591	-401.983592	-401.975379	-401.974434	-402.016666	30.739	
C	-0.1677041794	 1.5177875684	 0.1014921689	-0.500674
C	-0.0276135916	 0.0376477012	-0.0397674256	 0.149009
C	 0.1133491979	-0.7739164236	-1.1413869543	 0.148594
C	 0.2667142191	-0.7825735016	-2.6352427619	-0.391205
C	 0.1365883479	-2.3143432067	-2.9139174482	-0.085936
O	 0.3906018565	-3.0249802669	-1.6768923184	-0.291926
C	 0.2149335569	-2.1054307557	-0.6851845126	 0.333326
C	 0.1338605994	-2.1348844088	 0.6793599143	-0.250892
N	-0.0068276301	-0.8001168506	 1.0563411485	-0.305376
H	 0.6913416042	 1.9707747435	 0.6128768474	 0.128234
H	-0.2432744497	 1.9807822255	-0.8850948122	 0.133798
H	-1.0666227634	 1.7964347814	 0.6658571703	 0.12424
H	-0.4975948952	-0.2228560028	-3.1834120163	 0.109865
H	 1.2438542272	-0.4013902658	-2.9583636489	 0.112141
H	-0.8814006276	-2.5571906335	-3.2443008238	 0.106627
H	 0.8447086167	-2.6843307654	-3.6588638644	 0.111453
H	 0.1620176283	-2.9290199318	 1.4045970363	 0.116928
H	-0.1491610771	-0.495197257	 2.0028969608	 0.251795
63.9502	121.2724	178.0658	227.48	244.4299	298.183	403.4564	510.2419	582.3224	611.6061	636.021	648.2829	693.6928	756.5019	782.0158	856.171	939.0462	970.0534	1002.8867	1054.046	1065.3739	1083.0283	1097.4217	1167.0645	1203.4847	1240.7706	1263.2823	1298.7363	1312.4608	1377.2807	1416.7165	1453.3911	1470.3676	1481.2626	1494.4081	1502.6842	1513.474	1598.5141	1678.4238	3013.5601	3017.1013	3020.2451	3056.965	3068.6225	3103.2172	3119.7213	3281.5204	3684.1549
CC1=C2CCOC2=CN1	Cc1c2CCOc2c[nH]1	
InChI=1S/C7H9NO/c1-5-6-2-3-9-7(6)4-8-5/h4,8H,2-3H2,1H3	InChI=1S/C7H9NO/c1-5-6-2-3-9-7(6)4-8-5/h4,8H,2-3H2,1H3
