21
gdb 104861	2.28072	1.3638	1.11371	2.341	74.8	-0.2412	0.0609	0.3022	1211.5396	0.179615	-461.325634	-461.315205	-461.314261	-461.36107	37.235	
C	-0.2020683287	 1.3031903632	-0.2264822686	-0.248046
O	 0.3573607413	-0.0009898932	-0.2405033902	-0.298372
C	 0.865236978	-0.4891724019	 0.9746864148	 0.349365
C	 2.1632400803	 0.1858043928	 1.4089963036	-0.135261
O	 1.8754515737	 1.4909218984	 1.8952918595	-0.423787
C	-0.1299598385	-0.7148961428	 2.1401179631	-0.128282
O	 0.2234476169	-2.112016049	 2.2087857192	-0.296913
C	 0.984320829	-2.0395702823	 0.9762330759	 0.087947
C	 0.3261550312	-2.7915901438	-0.163628234	-0.392732
H	 0.5541312842	 2.0760064022	-0.0604228235	 0.127466
H	-0.6683716749	 1.4461339737	-1.2045621222	 0.119716
H	-0.9737748462	 1.4052501408	 0.5492464126	 0.108697
H	 2.6289993076	-0.4285600795	 2.1938913847	 0.100136
H	 2.8450274819	 0.2159083516	 0.5450903872	 0.096587
H	 2.6975120752	 1.8901363073	 2.1945111994	 0.291794
H	 0.0777560336	-0.183560567	 3.0736005453	 0.111459
H	-1.1805578536	-0.5694176405	 1.8586916673	 0.097669
H	 2.0054666498	-2.4121990989	 1.135832604	 0.069315
H	-0.6774656524	-2.4102522028	-0.36199621	 0.125569
H	 0.9160213171	-2.6917463874	-1.0800749898	 0.119196
H	 0.2588554745	-3.8529615308	 0.0943938417	 0.118475
72.0095	90.4416	125.7294	170.8132	178.0322	208.5325	235.8991	240.7553	292.0693	318.3464	378.1866	444.5371	472.4929	535.2555	688.9805	804.2459	880.0455	904.2477	941.7328	1001.7597	1013.9603	1043.1375	1081.2863	1096.8256	1109.1376	1146.3778	1159.9082	1185.0188	1197.5033	1208.033	1236.6937	1269.1005	1280.5865	1307.3353	1360.342	1387.0382	1406.6545	1453.5389	1482.3755	1483.7485	1486.4686	1488.029	1504.696	1511.4877	1518.5507	2976.9291	3003.4756	3005.947	3019.2626	3020.3142	3045.0542	3082.5703	3085.232	3113.6446	3120.3372	3136.0879	3831.0413
COC1(CO)COC1C	CO[C@@]1(CO)CO[C@H]1C	
InChI=1S/C6H12O3/c1-5-6(3-7,8-2)4-9-5/h5,7H,3-4H2,1-2H3	InChI=1S/C6H12O3/c1-5-6(3-7,8-2)4-9-5/h5,7H,3-4H2,1-2H3/t5-,6-/m0/s1
