18
gdb 19465	4.62548	1.60135	1.55499	2.5575	71.82	-0.2476	-0.0223	0.2253	886.7945	0.15582	-347.804143	-347.797385	-347.796441	-347.835157	26.456	
O	-0.7974598309	 0.9978573631	 0.5803134611	-0.24785
C	 0.103975678	 1.062992651	-0.2200472209	 0.115856
C	 1.3077256286	 1.9539920414	-0.1261482519	-0.064548
C	 1.1542931588	 3.3587361146	-0.833855996	-0.026717
C	 0.4465647112	 3.8260944793	 0.4675282401	-0.229996
C	 1.4604686091	 2.8517687642	 1.1367095259	-0.012279
C	 2.8057347931	 3.5487235937	 0.8510432611	-0.221332
C	 2.5741840679	 3.930309853	-0.6525282911	-0.215275
H	 0.0927938201	 0.422655272	-1.1336649414	 0.072958
H	 2.1850944227	 1.3773498466	-0.4477555569	 0.074289
H	 0.692209544	 3.4522599375	-1.8173310867	 0.067308
H	 0.5179029365	 4.8876480078	 0.7223701775	 0.087884
H	-0.5821407513	 3.4801491447	 0.5531218515	 0.127985
H	 1.2898731465	 2.4461679294	 2.1328555168	 0.074325
H	 2.956776372	 4.4242325871	 1.488690496	 0.100503
H	 3.6622697467	 2.882386065	 0.9880608773	 0.097655
H	 3.3020329899	 3.4668719165	-1.3245148687	 0.097888
H	 2.599532197	 5.0104288231	-0.8234894738	 0.101344
86.99	188.8541	248.9635	312.6171	366.0449	468.4658	649.9961	693.1724	789.5333	823.5293	843.9258	853.4614	892.3078	904.361	939.6203	964.6679	986.9125	996.8052	1025.7037	1058.6902	1076.8693	1091.5227	1129.7412	1152.7527	1200.5377	1219.0409	1233.1679	1257.904	1264.8499	1281.4148	1310.1614	1320.6604	1372.6931	1429.3366	1494.8586	1499.7035	1521.306	1815.0092	2851.2129	3021.6384	3050.2012	3058.47	3062.2288	3087.7571	3106.3826	3108.4007	3130.0832	3154.4585
O=CC1C2CC1CC2	O=C[C@H]1[C@H]2C[C@@H]1CC2	
InChI=1S/C7H10O/c8-4-7-5-1-2-6(7)3-5/h4-7H,1-3H2	InChI=1S/C7H10O/c8-4-7-5-1-2-6(7)3-5/h4-7H,1-3H2/t5-,6+,7+
