20
gdb 107219	3.83168	1.1949	1.08581	2.3184	77.02	-0.2327	0.0721	0.3048	1169.6226	0.173149	-403.112113	-403.104194	-403.10325	-403.14466	31.677	
O	 0.1225506071	 1.2912819669	-0.4405948598	-0.423266
C	 0.0488264365	 0.0424331816	 0.2312678458	-0.126541
C	-1.3545131343	-0.5118712649	 0.2122886775	 0.302417
C	-2.435696057	 0.1273873069	 1.0935435609	-0.311637
C	-3.4229553674	-0.9845218098	 1.4679184324	-0.029767
C	-4.2647547401	-1.6427230372	 0.4067703656	-0.313654
C	-2.9542074483	-2.2722956705	 0.8134659933	-0.03059
C	-1.6960209958	-1.9547864566	 0.0265580381	-0.100061
N	-1.7507836391	-1.0274391331	-1.1151894379	-0.38157
H	-0.1898854586	 1.1238791276	-1.3377288285	 0.287779
H	 0.7313513859	-0.6933573524	-0.2194350344	 0.089626
H	 0.380870264	 0.2279873031	 1.2584319551	 0.1021
H	-1.9667404091	 0.5183891258	 2.0028033381	 0.109622
H	-2.9149036171	 0.9817185568	 0.6013792511	 0.110675
H	-3.8133067734	-0.9839266537	 2.4796734578	 0.088832
H	-5.1686967895	-2.1435804481	 0.7380737151	 0.115771
H	-4.3747544746	-1.1798147782	-0.5694284207	 0.10921
H	-2.9778046057	-3.22213558	 1.3345825937	 0.087316
H	-0.9449394107	-2.7346043641	-0.0587172148	 0.089751
H	-2.7078771728	-0.78159192	-1.3486423385	 0.223987
64.3875	136.842	230.4221	280.6438	340.0471	371.8061	428.6426	447.6855	545.6879	660.4813	689.3758	713.8935	791.5882	798.8027	853.3525	864.1783	888.5691	940.146	957.3564	988.2754	1025.9335	1036.157	1046.8037	1061.6463	1081.1567	1087.8668	1108.3758	1127.0313	1169.8116	1177.1289	1204.7413	1230.7225	1280.4758	1300.9063	1324.1694	1349.491	1368.723	1392.3991	1418.8741	1437.1092	1484.9074	1495.6734	1499.2329	2993.5144	3038.7842	3070.3808	3077.254	3121.1868	3149.3609	3163.7774	3179.6277	3199.9457	3517.0415	3791.0306
OCC12CC3CC3C1N2	OC[C@]12C[C@H]3C[C@H]3[C@H]1N2	
InChI=1S/C7H11NO/c9-3-7-2-4-1-5(4)6(7)8-7/h4-6,8-9H,1-3H2	InChI=1S/C7H11NO/c9-3-7-2-4-1-5(4)6(7)8-7/h4-6,8-9H,1-3H2/t4-,5-,6-,7-/m1/s1
