15
gdb 13054	4.58622	1.16194	0.97246	3.2503	63.59	-0.2461	-0.0386	0.2075	1132.4176	0.117101	-399.794318	-399.786282	-399.785338	-399.828188	27.63	
O	-0.4117595974	 0.0862122778	-0.4321970616	-0.233795
C	-0.0356840063	 1.1654379157	-0.052428236	 0.147061
C	 1.3690039599	 1.6995987591	-0.2337688973	-0.265136
C	 1.376283302	 2.9619035088	-1.1049255092	-0.110634
N	 0.749929294	 4.172832712	-0.5004403884	-0.329256
C	 1.9342352728	 5.02913657	-0.7820191178	-0.282127
C	 2.6985280989	 3.7556555146	-1.177628098	 0.389789
O	 3.8357607353	 3.4751091525	-1.3984514144	-0.277261
H	-0.7278000928	 1.8684625783	 0.4625159581	 0.087405
H	 1.7719439074	 1.9593525715	 0.753166679	 0.123953
H	 1.9939040968	 0.9264623871	-0.6886660188	 0.135471
H	 1.0128999355	 2.72336935	-2.1157849175	 0.111234
H	-0.0946709766	 4.4766785294	-0.9697794362	 0.231636
H	 1.8313680494	 5.7260494678	-1.6250834643	 0.130701
H	 2.319642171	 5.5794595856	 0.0828251624	 0.140958
52.217	63.3515	115.6497	147.5659	255.5333	373.3944	453.0645	505.0331	551.2957	650.613	742.8699	793.2752	855.5788	914.4045	976.6779	1008.2056	1031.4059	1068.521	1087.1435	1114.0243	1129.0346	1208.6235	1223.2565	1262.7898	1314.9436	1349.9015	1371.8658	1423.3803	1453.6777	1474.6036	1831.5452	1918.7069	2886.6918	2997.6355	3016.7302	3036.4628	3075.4875	3114.9243	3551.4054
O=CCC1NCC1=O	O=CC[C@H]1NCC1=O	
InChI=1S/C5H7NO2/c7-2-1-4-5(8)3-6-4/h2,4,6H,1,3H2	InChI=1S/C5H7NO2/c7-2-1-4-5(8)3-6-4/h2,4,6H,1,3H2/t4-/m1/s1
