17
gdb 29972	3.78289	1.09635	0.85458	1.1872	80.	-0.1883	0.0262	0.2145	1318.0091	0.138383	-414.231635	-414.223103	-414.222159	-414.265294	30.978	
C	-0.001350902	 1.5128714342	-0.1666374258	-0.336581
N	-0.0055140841	 0.0701635304	-0.0523853443	 0.018162
C	-0.0472516333	-0.8271653494	-1.070383005	 0.003882
N	-0.0392566443	-2.0721825319	-0.6412734614	-0.352226
C	 0.0101703222	-1.9685208284	 0.7253955174	 0.35445
N	 0.0300331854	-3.1398373425	 1.4746638763	-0.371997
C	 0.0775972114	-3.240808245	 2.8346516537	 0.074566
N	 0.1110259312	-2.2248925276	 3.6111594676	-0.466862
C	 0.0323373773	-0.6546579151	 1.1270241722	-0.201872
H	 0.906453321	 1.9366242311	 0.2741692334	 0.145592
H	-0.0371630407	 1.7858129228	-1.2231121031	 0.142047
H	-0.8708523852	 1.9467642614	 0.3370452071	 0.145593
H	-0.082391165	-0.5175794585	-2.1044778861	 0.124832
H	 0.0057553279	-3.983320535	 0.9257255994	 0.25811
H	 0.083021248	-4.2875648591	 3.1602662028	 0.087451
H	 0.1434975312	-2.5321035786	 4.5800145442	 0.217372
H	 0.0698646689	-0.2068969887	 2.1016298316	 0.15748
80.5394	96.4196	152.2091	157.9024	231.9236	303.6889	382.5368	419.3485	492.1668	565.2562	634.4493	693.8878	718.8813	738.5511	795.4488	808.975	830.4957	1009.3005	1031.5753	1048.6646	1084.7279	1126.5797	1152.4389	1181.4914	1233.6401	1264.8405	1308.4628	1392.6179	1409.9031	1424.5181	1454.3941	1480.0956	1513.4804	1539.7697	1576.3064	1622.7099	1716.0772	3038.476	3050.0991	3098.3125	3135.7755	3247.5892	3325.3104	3516.1175	3657.0869
CN1C=NC(NC=N)=C1	Cn1cnc(NC=N)c1	
InChI=1S/C5H8N4/c1-9-2-5(7-3-6)8-4-9/h2-4H,1H3,(H2,6,7)	InChI=1S/C5H8N4/c1-9-2-5(7-3-6)8-4-9/h2-4H,1H3,(H2,6,7)
