23
gdb 122208	3.25037	0.70486	0.64145	1.5843	82.13	-0.2596	0.0794	0.339	1831.4142	0.203688	-425.407466	-425.396677	-425.395733	-425.444452	38.737	
C	 0.0215054281	 1.721316219	-0.003824434	-0.398584
C	-0.2736141331	 0.2283429687	-0.1659673192	-0.247118
C	 0.5307346804	-0.4897894964	-1.2419357437	 0.417472
C	 0.2423239042	-1.9747194148	-1.4065068975	-0.270024
C	 0.6544872681	-2.8218667441	-0.1940100342	-0.199577
C	 0.5131002363	-4.3222809077	-0.4531721602	-0.058888
O	 0.8353319017	-5.1115123932	 0.6804630519	-0.419511
C	 1.1074341965	 0.2400988883	-2.3824217882	-0.233471
O	 1.9325283976	-0.1683002631	-1.2860002871	-0.276684
H	 1.0964771208	 1.8911959431	 0.1022527901	 0.13852
H	-0.3350693114	 2.3041925684	-0.8586759231	 0.115235
H	-0.4757733939	 2.1127708491	 0.8881075716	 0.113291
H	-0.0816532759	-0.2776538634	 0.7879812482	 0.112059
H	-1.3395006122	 0.07381989	-0.3783912592	 0.101616
H	-0.8277085826	-2.1114177999	-1.6127627074	 0.099163
H	 0.781689665	-2.3333732441	-2.2910032433	 0.099541
H	 1.6999478377	-2.593455709	 0.053595806	 0.104767
H	 0.0543287624	-2.5698537607	 0.6870541126	 0.108617
H	-0.5279140017	-4.5663044632	-0.6945552104	 0.108667
H	 1.1205842101	-4.6097575347	-1.3274223748	 0.085796
H	 1.7565593194	-4.9413643048	 0.9018482014	 0.280569
H	 1.2826903862	-0.287073994	-3.3199279272	 0.106438
H	 0.9683292265	 1.3142437866	-2.4816835423	 0.112107
42.7243	70.2709	78.8513	121.2486	143.9677	224.0841	252.7317	297.7324	311.898	345.5474	362.2152	394.7201	508.4454	553.3077	703.1856	750.8471	775.6656	825.6792	877.2799	910.1975	941.5677	1017.1112	1027.9811	1046.6771	1057.329	1081.6544	1103.051	1119.8466	1142.0751	1158.0907	1178.5904	1230.8372	1265.3735	1298.1299	1311.8967	1322.618	1365.2891	1386.3272	1398.2716	1403.5055	1424.6051	1428.3086	1473.9098	1482.0797	1493.297	1499.3814	1512.3374	1516.0259	1534.4192	2967.33	3015.396	3024.0977	3025.642	3043.4015	3051.8349	3059.2753	3060.6377	3085.2546	3085.7499	3109.061	3122.5596	3172.7379	3814.3838
CCC1(CCCO)CO1	CC[C@@]1(CCCO)CO1	
InChI=1S/C7H14O2/c1-2-7(6-9-7)4-3-5-8/h8H,2-6H2,1H3	InChI=1S/C7H14O2/c1-2-7(6-9-7)4-3-5-8/h8H,2-6H2,1H3/t7-/m1/s1
