19
gdb 38766	3.12726	1.62094	1.20025	0.9215	80.89	-0.2217	0.0077	0.2293	1043.4879	0.16269	-382.015436	-382.008386	-382.007441	-382.046526	29.205	
C	-0.0126718065	 1.4585393638	-0.034435336	-0.251671
C	 1.2807008855	 0.7103929504	 0.0049601679	-0.0467
C	 2.2034139996	 0.7934681369	 1.1754977128	-0.075759
C	 2.4809997586	-0.1933846918	 2.0295364188	-0.05226
C	 1.8936030912	-1.5604444482	 1.9727018125	-0.069471
N	 0.9019558264	-1.9225603746	 3.01528545	-0.343612
C	 0.4724498845	-1.7891958769	 1.610981591	-0.024487
C	-0.401954979	-0.5935890633	 1.3043674217	-0.172893
N	-0.0014182445	-0.0010652341	 0.0267924333	-0.091455
H	-0.3009625018	 1.995308322	 0.8685388116	 0.110964
H	-0.368257244	 1.9006122385	-0.9615620029	 0.112293
H	 1.801614101	 0.6044593703	-0.9483564808	 0.098771
H	 2.7203468735	 1.7452571099	 1.2910154888	 0.094226
H	 3.1976470555	-0.0149286793	 2.8292069801	 0.093435
H	 2.6008873484	-2.3428219194	 1.6968456819	 0.091865
H	 1.0053495195	-2.9051652629	 3.2563757066	 0.230226
H	 0.2464172788	-2.697475644	 1.0570814554	 0.087621
H	-1.4539661515	-0.8906570097	 1.2203611132	 0.101394
H	-0.3261578553	 0.1068021722	 2.147220814	 0.107512
159.8057	221.1999	299.3742	330.0012	357.2709	419.7708	431.4529	561.6979	607.9929	722.2098	757.3847	796.3166	826.1942	827.4098	851.0626	932.0442	952.3929	991.227	1002.4945	1005.3781	1017.2994	1051.5613	1075.3996	1112.2851	1116.1958	1135.1116	1165.3023	1184.5114	1218.9742	1226.5728	1268.4641	1286.7656	1318.2424	1343.5204	1384.8183	1405.0631	1433.2582	1470.0011	1500.1283	1514.2507	1715.867	3007.4928	3054.8458	3080.0179	3089.4736	3097.5321	3126.3725	3134.6392	3151.0334	3177.047	3498.0662
C1C2C=CC3NC3CN12	C1[C@H]2C=C[C@H]3N[C@H]3CN12	
InChI=1S/C7H10N2/c1-2-6-7(8-6)4-9-3-5(1)9/h1-2,5-8H,3-4H2	InChI=1S/C7H10N2/c1-2-6-7(8-6)4-9-3-5(1)9/h1-2,5-8H,3-4H2/t5-,6-,7+,9?/m1/s1
