18
gdb 77371	2.57218	1.68456	1.35916	2.0758	71.47	-0.2329	0.0647	0.2976	1007.375	0.146526	-439.019642	-439.011297	-439.010353	-439.051829	32.805	
C	-0.0263101893	 1.4954150125	-0.0341613648	-0.507637
C	-0.0576994463	 0.0003388669	-0.0429887035	 0.334554
C	 0.5681771252	-0.9950123694	-0.9546906538	-0.209392
N	 1.1936659926	-0.7356402326	 0.3707658098	-0.18426
C	 0.7273681018	-2.0707225869	 0.878261202	-0.209797
C	-0.3403005179	-2.0820813884	-0.2219147086	 0.301946
O	-0.9648437567	-3.2135787128	-0.7104893304	-0.479222
C	-1.2569055908	-0.9057510449	 0.1891883683	 0.050573
O	-1.8229022152	-0.8786051893	 1.4772162764	-0.443049
H	 0.9636675748	 1.8570206841	-0.3236565981	 0.132573
H	-0.7665027727	 1.9076001325	-0.728275769	 0.117157
H	-0.2494467233	 1.8786416979	 0.9669378415	 0.136033
H	 1.0700705738	-0.9091180831	-1.9094912357	 0.098161
H	 1.5284106856	-2.7991647292	 0.7135654647	 0.09366
H	 0.3895792756	-2.090545621	 1.918530779	 0.114551
H	-0.3028241921	-3.9000176205	-0.8461831453	 0.287004
H	-2.0095236358	-0.7364030041	-0.5938489129	 0.077659
H	-2.5803253193	-1.4728616917	 1.4854505204	 0.289486
172.2925	185.4651	208.8762	251.7578	270.2977	296.3455	332.2201	375.9451	401.8794	538.8163	580.8113	620.1825	650.1617	713.3847	809.9528	848.2675	886.5612	907.3259	948.9719	993.4148	1020.6287	1054.8918	1067.9329	1081.456	1122.1626	1148.0223	1159.5758	1166.0233	1238.3766	1252.0807	1288.8239	1352.0527	1372.8599	1397.6943	1417.7649	1465.7959	1483.1911	1493.9013	1498.0731	3012.7689	3036.2526	3041.2929	3099.4086	3105.4987	3121.3586	3203.0559	3805.5893	3818.0976
CC12C3N1CC3(O)C2O	C[C@@]12[C@H]3N1C[C@@]3(O)[C@H]2O	
InChI=1S/C6H9NO2/c1-5-3-6(9,4(5)8)2-7(3)5/h3-4,8-9H,2H2,1H3	InChI=1S/C6H9NO2/c1-5-3-6(9,4(5)8)2-7(3)5/h3-4,8-9H,2H2,1H3/t3-,4+,5+,6+,7?/m1/s1
