14
gdb 51307	3.29632	1.25178	0.91245	1.1138	67.16	-0.2529	-0.0493	0.2036	1175.8196	0.102188	-473.901479	-473.893952	-473.893008	-473.934043	27.276	
O	 1.9087367462	 4.1004274578	 0.0521609126	-0.299391
C	 1.0255602496	 3.2738862806	 0.0421943872	 0.149499
N	 1.2297787866	 1.9219457761	-0.0489056424	-0.402038
C	 2.4621397968	 1.3055472922	-0.1419152691	 0.260537
C	 3.722796773	 1.7519324633	-0.1718357944	-0.218177
C	 4.624226761	 0.5578666295	-0.2849061227	-0.12702
O	 3.7560528252	-0.5855861786	-0.3149493741	-0.221903
C	 2.4664602918	-0.1754597453	-0.2317787801	 0.415405
O	 1.5143386185	-0.9096184373	-0.2333344615	-0.373774
H	-0.049488822	 3.5224502179	 0.1056756735	 0.098477
H	 0.4392430358	 1.2891841369	-0.0514966057	 0.273615
H	 4.0615874613	 2.7740122058	-0.1252390572	 0.159641
H	 5.2261701603	 0.5576599303	-1.2018366065	 0.142567
H	 5.3061280958	 0.4504677208	 0.5674862905	 0.142563
82.8955	159.9731	182.0443	240.8895	262.0996	332.6846	478.4741	541.8372	592.5663	650.6856	753.231	791.6883	796.722	840.8849	907.1628	962.2485	1019.0025	1024.3947	1067.7656	1084.8163	1168.9542	1197.1851	1248.6897	1309.353	1378.613	1429.7119	1497.1089	1544.6194	1722.0634	1804.2782	1858.4853	2972.778	3030.7858	3063.6403	3279.154	3577.8557
O=CNC1=CCOC1=O	O=CNC1=CCOC1=O	
InChI=1S/C5H5NO3/c7-3-6-4-1-2-9-5(4)8/h1,3H,2H2,(H,6,7)	InChI=1S/C5H5NO3/c7-3-6-4-1-2-9-5(4)8/h1,3H,2H2,(H,6,7)
