14
gdb 33714	3.9277	1.51851	1.27386	3.752	71.36	-0.2474	-0.029	0.2184	942.2169	0.101943	-399.513394	-399.506891	-399.505947	-399.544164	26.032	
N	 0.1685503797	-1.0997946266	-0.0049150666	-0.341094
C	 0.0325689426	 0.0501226508	-0.0237857912	 0.175544
C	-0.1093660903	 1.4693419534	-0.0398675152	 0.144421
C	-1.2300773817	 2.1835373106	 0.613134427	-0.137968
C	-1.2885655686	 3.4450317432	 0.1622839667	-0.097382
C	-0.102804451	 3.673213115	-0.728606787	 0.012662
O	 1.0863809807	 3.6520580965	 0.1939536991	-0.282252
C	 1.2862208908	 2.3220878105	-0.1392394267	 0.085816
C	 0.3296099491	 2.2734371364	-1.2578082145	-0.194202
H	-1.8305567372	 1.7399935188	 1.396058725	 0.129043
H	-1.9361519917	 4.2324071564	 0.5218841665	 0.121711
H	-0.0628426302	 4.5470150262	-1.3743160182	 0.104987
H	 2.2250954575	 1.8411659897	 0.1019982993	 0.148543
H	 0.3749567503	 1.8955538192	-2.2707973842	 0.13017
150.5347	161.9753	377.2897	398.5659	483.8609	509.5712	542.3324	592.6401	632.7868	722.6895	762.3197	806.3855	818.6918	860.6122	883.2641	920.6464	935.393	977.0768	999.003	1083.73	1096.3332	1108.2806	1182.4312	1208.1533	1230.4277	1252.9361	1305.5094	1358.0186	1380.9012	1624.473	2343.9119	3154.2863	3199.176	3219.1519	3220.9005	3243.5107
N#CC12C=CC3OC1C23	N#C[C@@]12C=C[C@H]3O[C@@H]1[C@@H]23	
InChI=1S/C7H5NO/c8-3-7-2-1-4-5(7)6(7)9-4/h1-2,4-6H	InChI=1S/C7H5NO/c8-3-7-2-1-4-5(7)6(7)9-4/h1-2,4-6H/t4-,5+,6-,7-/m1/s1
