15
gdb 27002	3.00102	1.18722	0.93544	2.2064	72.6	-0.207	0.0109	0.2178	1208.7699	0.114853	-413.039218	-413.030826	-413.029882	-413.073366	30.101	
N	 0.1311728539	 1.433690415	 0.3753343807	-0.605187
C	 0.040327132	 0.056114523	 0.1317977248	 0.207046
C	-1.0989383076	-0.6916755477	-0.0590567441	 0.26903
C	-2.5423367987	-0.3050080451	-0.0498479786	-0.467454
C	-3.2037174684	-0.4368141551	-1.3564455689	 0.25338
N	-3.7093751999	-0.5689843201	-2.3871098904	-0.305375
N	-0.6431725705	-1.9945754503	-0.2086611092	-0.305549
C	 0.7069131509	-1.9662750169	-0.0850091217	 0.011947
N	 1.1545235272	-0.7461106297	 0.1223989597	-0.300002
H	 1.1028748365	 1.6899276463	 0.5039245051	 0.252114
H	-0.2572330065	 1.9953762258	-0.3729863001	 0.247865
H	-3.1162122427	-0.895655354	 0.6775107292	 0.158659
H	-2.6147135629	 0.737048604	 0.2794889282	 0.174713
H	-1.2081083515	-2.8003566898	-0.4202224771	 0.272368
H	 1.3133078383	-2.8564559855	-0.1567513076	 0.136445
29.589	96.9793	159.9784	246.3049	254.7264	323.0513	382.0559	423.4663	478.6561	507.7904	643.5573	689.2967	716.2703	780.5088	806.1067	831.5133	912.9877	922.8717	960.5433	1071.0634	1131.472	1174.2567	1253.8483	1268.783	1333.5403	1340.5466	1399.1882	1450.4753	1487.6094	1521.8108	1646.7981	1656.2803	2358.3208	3015.979	3081.8479	3255.9272	3526.5522	3613.2524	3660.8844
NC1=C(CC#N)NC=N1	Nc1c(CC#N)[nH]cn1	
InChI=1S/C5H6N4/c6-2-1-4-5(7)9-3-8-4/h3H,1,7H2,(H,8,9)	InChI=1S/C5H6N4/c6-2-1-4-5(7)9-3-8-4/h3H,1,7H2,(H,8,9)
