17
gdb 55411	2.39327	1.59682	1.12966	1.4873	69.35	-0.2407	-0.0468	0.1939	1098.8328	0.134203	-459.003501	-458.994827	-458.993883	-459.037305	31.377	
C	 0.1257559089	 1.3704282278	-0.0214171401	-0.493013
C	-0.0310026513	-0.1271757451	-0.142586764	 0.362792
O	 0.8861743044	-0.9003573258	-0.265655538	-0.287104
C	-1.4854988371	-0.6461725958	-0.0642915156	-0.101902
O	-1.6292571747	-1.9579019409	-0.5391117969	-0.243409
C	-1.4783647953	-2.8657766453	 0.563036835	-0.094073
C	-2.1238233067	-2.156540497	 1.7563735744	-0.333533
C	-1.9264877279	-0.6808637109	 1.4174185411	 0.36857
O	-2.0624359556	 0.2703255138	 2.1390801526	-0.300198
H	 1.1793630279	 1.6300701035	 0.0867575368	 0.145154
H	-0.278752963	 1.8552565108	-0.9179662498	 0.144878
H	-0.4553720371	 1.7368450699	 0.8318227699	 0.169868
H	-2.1425644147	 0.0256961179	-0.6285224193	 0.123491
H	-1.97304239	-3.7974136596	 0.283048762	 0.120267
H	-0.415076925	-3.063220643	 0.7411682859	 0.129448
H	-3.2019351973	-2.3483588768	 1.8063434535	 0.145885
H	-1.6917409855	-2.3931608732	 2.7305914424	 0.142877
77.843	91.3646	161.4699	166.9744	177.4911	286.0405	361.8749	442.6519	484.8685	564.2694	586.5224	644.34	677.0505	785.2228	828.6906	869.4822	927.3551	972.0667	988.3574	995.9574	1081.6382	1114.4726	1143.0433	1183.4354	1196.7571	1211.8684	1242.7977	1280.3123	1331.6856	1383.0328	1389.9021	1446.3275	1467.2156	1474.2495	1520.4052	1819.1047	1850.4079	3035.0625	3043.5094	3052.6919	3054.0443	3099.8801	3115.4395	3125.7174	3155.3457
CC(=O)C1OCCC1=O	CC(=O)[C@H]1OCCC1=O	
InChI=1S/C6H8O3/c1-4(7)6-5(8)2-3-9-6/h6H,2-3H2,1H3	InChI=1S/C6H8O3/c1-4(7)6-5(8)2-3-9-6/h6H,2-3H2,1H3/t6-/m1/s1
