20
gdb 38544	3.12832	1.6164	1.19836	1.4743	86.54	-0.2123	0.0242	0.2365	1070.6564	0.173945	-365.981469	-365.974226	-365.973282	-366.012753	30.	
C	-0.1317665904	 1.4343600167	 0.2162014947	-0.300826
N	 1.2113008545	 0.8902034332	-0.0499820935	-0.187405
C	 1.6382509052	 0.269305936	 1.2704846082	-0.271127
C	 0.5036699715	-0.7332557643	 1.1662972084	 0.298502
C	 0.2221959287	-1.9893110783	 1.4900025689	-0.243043
C	-0.8351832363	-2.7399008569	 0.70818301	-0.234747
C	-1.593808527	-1.8644598052	-0.3173712328	-0.210553
C	-0.6803641694	-0.8690977176	-1.0747742222	-0.33365
C	-0.0328043286	-0.0247748707	-0.0140790209	 0.315502
H	-0.3571190921	 1.8321414676	 1.2047668162	 0.107529
H	-0.5130338505	 2.0296850477	-0.6095940927	 0.119678
H	 2.634640787	-0.1717598695	 1.1892451986	 0.124112
H	 1.6288804318	 0.9843914334	 2.1007691994	 0.109044
H	 0.7769199473	-2.5297875747	 2.2527295503	 0.083332
H	-0.3491252471	-3.5798128242	 0.1888686062	 0.107268
H	-1.5608613235	-3.2054292925	 1.3881025656	 0.104288
H	-2.1166379573	-2.5101263598	-1.0301036912	 0.096058
H	-2.3654129184	-1.288374587	 0.2078543646	 0.105543
H	 0.0883235785	-1.4162205037	-1.6345033147	 0.111118
H	-1.259018554	-0.2816570602	-1.7938976129	 0.099376
139.8588	201.9623	264.9873	318.7014	374.8443	437.2583	473.1297	507.5694	593.6239	676.1761	730.3995	751.7981	806.36	824.8798	845.6058	880.3549	906.1076	943.9317	958.6308	1001.7969	1025.7488	1070.985	1081.4843	1096.973	1102.9484	1127.9056	1147.2213	1187.8725	1195.0063	1260.3724	1266.3191	1277.2361	1319.1172	1359.8767	1364.0502	1389.4412	1397.7644	1476.9493	1483.3935	1486.5601	1495.0197	1509.075	1772.5975	2993.3287	3023.3965	3031.2647	3037.9628	3038.9694	3078.6131	3084.9052	3089.4828	3102.5717	3158.1888	3182.2809
C1N2CC3=CCCCC123	C1N2C[C]3[CH]CCC[C@]123	
InChI=1S/C8H11N/c1-2-4-8-6-9(8)5-7(8)3-1/h3H,1-2,4-6H2	InChI=1S/C8H11N/c1-2-4-8-6-9(8)5-7(8)3-1/h3H,1-2,4-6H2/t8-,9?/m1/s1
