20
gdb 74354	4.20214	0.83048	0.75653	4.0257	85.09	-0.2337	0.0164	0.2501	1545.5581	0.171417	-403.19945	-403.190195	-403.189251	-403.23443	33.721	
C	 0.051614408	 1.6396289619	 0.4103745777	-0.48864
C	 0.0096120373	 0.1676273459	 0.1501291984	 0.3243
C	-0.4421119617	-0.4505112318	-0.9429281964	-0.199327
C	-0.2734162612	-1.9509967697	-0.8809905681	 0.01907
C	 0.0845738471	-2.195929532	 0.6120304294	-0.234147
C	 0.5692345464	-0.829136641	 1.1465072509	-0.297368
N	-1.4484650725	-2.6881735427	-1.3288308364	-0.282439
C	-1.4139541538	-3.6662145334	-2.272370377	 0.153767
O	-0.4199321536	-4.0556864233	-2.8488894229	-0.325041
H	 1.0825920757	 1.9836493117	 0.5633496266	 0.129329
H	-0.3775136696	 2.2114036134	-0.4166209007	 0.125335
H	-0.4975159551	 1.8937750781	 1.3260645378	 0.125677
H	-0.8475675262	 0.0411405778	-1.8210491001	 0.091609
H	 0.5294450266	-2.2892808536	-1.5448229646	 0.126395
H	-0.8246729867	-2.5002985342	 1.1416056184	 0.096974
H	 0.8150154216	-2.998130972	 0.7388111816	 0.111895
H	 1.6664818306	-0.7671497117	 1.1639746288	 0.111044
H	 0.2384827371	-0.6297647029	 2.1730491368	 0.100609
H	-2.3411875642	-2.4474411614	-0.9254314154	 0.240948
H	-2.4234738458	-4.0825661391	-2.4648907747	 0.07001
38.0705	78.9188	152.8185	178.8472	193.7126	230.4223	302.3826	392.6704	436.0212	482.0023	545.3021	588.5877	617.9897	778.2598	837.9799	855.9276	892.1419	915.199	975.4086	996.195	1025.5979	1030.0592	1042.2881	1073.7602	1101.7644	1164.9808	1188.5751	1213.5885	1245.6824	1280.959	1304.2485	1315.3294	1349.7551	1371.4841	1413.2158	1431.0806	1478.6617	1483.4382	1487.8554	1499.9275	1523.9752	1723.1977	1803.3013	2926.9958	3009.9525	3017.9711	3040.3182	3054.7048	3061.9144	3063.1498	3108.1259	3112.8164	3187.9228	3618.0849
CC1=CC(CC1)NC=O	CC1=C[C@@H](CC1)NC=O	
InChI=1S/C7H11NO/c1-6-2-3-7(4-6)8-5-9/h4-5,7H,2-3H2,1H3,(H,8,9)	InChI=1S/C7H11NO/c1-6-2-3-7(4-6)8-5-9/h4-5,7H,2-3H2,1H3,(H,8,9)/t7-/m1/s1
