19
gdb 59406	2.95774	0.94956	0.93818	1.0937	79.1	-0.2569	0.0258	0.2828	1382.5025	0.154511	-422.972702	-422.962257	-422.961313	-423.008253	38.001	
C	 0.2313237324	 1.4349478307	 0.2112284269	-0.409004
C	-0.279545656	 0.0136539674	-0.0232714045	 0.092303
O	-1.6993349302	-0.046823437	-0.1012859029	-0.424872
C	 0.3306930054	-0.5768107968	-1.2816022629	 0.008311
O	 1.7098232794	-0.9354859485	-1.2510200425	-0.282894
C	 0.7390034318	-1.9917320599	-1.4491040538	 0.175707
C	 0.6373571056	-3.0241244086	-0.3456856198	-0.470847
C	 0.71200613	-2.5401814106	-2.7881927987	 0.28954
C	 0.6787537484	-3.0247735538	-3.8876808893	-0.427045
H	 1.319744085	 1.438288538	 0.3202642699	 0.139852
H	-0.0232209185	 2.084410364	-0.6360646203	 0.108644
H	-0.2190945308	 1.8546313274	 1.1145397154	 0.126475
H	-0.0147706431	-0.6062798673	 0.8371547076	 0.095608
H	-1.9880115079	 0.5909082544	-0.763770052	 0.281447
H	 0.0315581507	-0.0526601435	-2.1947233897	 0.08675
H	 0.733547534	-2.5631115758	 0.6378647248	 0.132461
H	-0.322357792	-3.5457197536	-0.4030546132	 0.14083
H	 1.434983957	-3.7639059546	-0.4580983958	 0.137732
H	 0.652936079	-3.4443418221	-4.863034139	 0.199004
47.6792	97.8181	120.7135	153.323	213.7546	239.6539	259.7121	274.447	329.4439	370.332	398.9763	468.2783	495.8735	550.9978	582.6666	622.8545	661.7358	695.656	824.4412	881.033	913.5226	956.4916	1018.8285	1058.1016	1087.654	1104.5345	1142.8038	1169.5194	1236.3749	1272.533	1330.3007	1338.0013	1399.5082	1406.3241	1415.0211	1456.66	1482.4903	1491.7618	1493.7891	1501.9741	2237.7899	3026.0756	3052.3477	3059.3164	3081.4204	3104.359	3119.5744	3126.8115	3147.7083	3501.9277	3799.5601
CC(O)C1OC1(C)C#C	C[C@@H](O)[C@H]1O[C@]1(C)C#C	
InChI=1S/C7H10O2/c1-4-7(3)6(9-7)5(2)8/h1,5-6,8H,2-3H3	InChI=1S/C7H10O2/c1-4-7(3)6(9-7)5(2)8/h1,5-6,8H,2-3H3/t5-,6-,7-/m1/s1
