17
gdb 111191	2.75445	1.25302	0.99992	4.6871	73.72	-0.2628	-0.004	0.2588	1189.1823	0.137157	-417.92271	-417.914743	-417.913799	-417.95567	30.043	
O	-0.0024973426	 1.4512593942	 0.5397173363	-0.413157
C	 0.1451444644	 0.1182028502	 0.0854003634	-0.121746
C	-1.2152304903	-0.550246858	 0.0120435827	 0.047879
C	-1.4775921491	-2.0784205581	 0.0311562843	-0.096341
C	-1.0849598286	-2.0208927491	 1.5212283728	-0.188446
N	-1.9508698654	-0.7499028723	 1.3738001629	-0.171189
C	-2.8844431411	-1.6889582141	 0.5690733009	-0.10372
C	-3.8690175648	-1.060164903	-0.3005933646	 0.289241
N	-4.6756980271	-0.602575389	-0.9905521762	-0.325084
H	-0.537081919	 1.4182583866	 1.3420892023	 0.298116
H	 0.5659144189	 0.1760635911	-0.9246684211	 0.120403
H	 0.8662394195	-0.4378480295	 0.7002420197	 0.09397
H	-1.8368829321	 0.027333894	-0.6776747705	 0.118046
H	-1.242786132	-2.8339402702	-0.7241841434	 0.090743
H	-1.52217366	-2.7618202951	 2.1950358452	 0.114848
H	-0.0488403958	-1.824304352	 1.7861106634	 0.120727
H	-3.3813568149	-2.4215778357	 1.2099356818	 0.12571
75.7936	121.3928	165.7108	207.424	343.5402	392.6165	426.6305	493.8538	519.9602	537.3733	623.6895	739.6228	772.2667	840.5626	881.8522	905.3652	915.1984	1012.4129	1034.1985	1057.5809	1079.478	1110.484	1128.8053	1144.5899	1162.1795	1172.7024	1218.9021	1223.3576	1246.2957	1270.7665	1358.05	1383.2856	1419.2049	1459.2458	1507.6145	1551.335	2355.5342	3007.2498	3064.1419	3065.2062	3079.2258	3083.8268	3088.1031	3167.2736	3791.126
OCC1C2CN1C2C#N	OC[C@H]1[C@H]2CN1[C@H]2C#N	
InChI=1S/C6H8N2O/c7-1-5-4-2-8(5)6(4)3-9/h4-6,9H,2-3H2	InChI=1S/C6H8N2O/c7-1-5-4-2-8(5)6(4)3-9/h4-6,9H,2-3H2/t4-,5-,6-/m0/s1
