21
gdb 95333	3.25444	1.31727	1.07331	1.3796	86.03	-0.2337	0.0213	0.255	1196.9666	0.183974	-387.083712	-387.075575	-387.074631	-387.116167	32.375	
C	-0.1112169174	 1.5417354059	-0.0009897922	-0.389814
C	 0.0073517472	 0.0103634726	 0.0016319132	 0.105957
O	 0.542919805	-0.453271791	-1.2440151859	-0.273356
C	 1.9608387259	-0.5745601913	-1.3200178664	-0.117381
C	 2.4023086201	-1.6318200296	-0.3179475398	-0.047927
C	 3.7918739649	-1.6308180821	 0.3993816504	-0.250073
C	 3.0441596382	-1.7508884624	 1.774451576	-0.314777
C	 1.8055575306	-1.3016084296	 1.0301505539	 0.327938
C	 0.7764462401	-0.4865177224	 1.2067213554	-0.266867
H	 0.8757133072	 2.0137957897	-0.033515143	 0.116567
H	-0.6842257034	 1.8688894072	-0.8725698169	 0.121815
H	-0.621384946	 1.8912681991	 0.9029240395	 0.111159
H	-1.0091584408	-0.4068841576	 0.0186769369	 0.093246
H	 2.1741290725	-0.8358175952	-2.3607778358	 0.102371
H	 2.4603113776	 0.3815431342	-1.0975444781	 0.084347
H	 2.1386392247	-2.6341134265	-0.6742761463	 0.083202
H	 4.489612838	-2.4293560811	 0.1389348176	 0.101121
H	 4.2977955698	-0.6663998743	 0.3013481989	 0.106968
H	 2.9870113574	-2.7928186934	 2.1090322329	 0.111336
H	 3.3935959328	-1.1364630484	 2.6083958896	 0.107713
H	 0.4931477556	-0.0898650937	 2.1784020099	 0.086456
92.3467	171.1722	214.6623	228.1922	298.3236	344.536	391.5199	464.4337	468.836	532.9604	663.2748	719.1663	768.9489	804.8144	824.6534	862.6071	911.7693	919.5802	932.8242	973.6022	1000.5639	1052.9906	1065.0088	1091.8687	1095.2488	1128.6254	1148.3576	1164.9308	1195.7831	1227.5297	1243.2694	1263.2618	1282.5125	1302.5492	1335.5247	1355.2436	1365.8017	1393.0205	1399.5884	1472.0037	1485.2756	1487.5166	1493.8598	1501.6698	1771.8218	2979.5216	3005.1226	3036.1951	3037.9574	3041.5397	3061.5724	3080.3457	3094.3707	3105.871	3120.9587	3121.4626	3158.4754
CC1OCC2CCC2=C1	C[C@H]1OC[C@H]2CC[C]2[CH]1	
InChI=1S/C8H12O/c1-6-4-7-2-3-8(7)5-9-6/h4,6,8H,2-3,5H2,1H3	InChI=1S/C8H12O/c1-6-4-7-2-3-8(7)5-9-6/h4,6,8H,2-3,5H2,1H3/t6-,8-/m1/s1
