20
gdb 120409	3.37848	0.94727	0.80085	4.0852	78.38	-0.2381	0.0402	0.2783	1464.1123	0.16938	-440.298977	-440.288889	-440.287945	-440.334879	34.812	
C	-0.0272613145	 1.4147487945	-0.1437850077	-0.229176
O	-0.0415526152	 0.0066027731	-0.201252637	-0.236559
C	-1.3018820758	-0.5467457949	 0.1099343549	-0.064111
C	-1.1944853533	-2.0573504772	 0.0191169199	 0.018936
C	-2.5316938976	-2.8504720678	 0.0836071122	-0.416467
C	-2.1701420184	-3.3407296382	-1.3395028722	 0.412035
O	-2.6514146013	-4.0810403017	-2.1576803363	-0.37534
N	-1.0202775088	-2.5909620149	-1.3376989278	-0.06368
C	 0.0635898212	-2.5004787864	-2.2838930285	-0.341398
H	 0.9840604101	 1.7420571678	-0.3957597506	 0.13113
H	-0.7354253641	 1.8597626995	-0.859938555	 0.109029
H	-0.2804481033	 1.782341152	 0.8629213228	 0.107789
H	-1.6146245669	-0.2583092039	 1.1287022105	 0.092026
H	-2.0722929703	-0.1834162629	-0.591418304	 0.090186
H	-0.42332052	-2.4109299585	 0.714888207	 0.087801
H	-2.57638566	-3.6390811859	 0.8361253518	 0.13245
H	-3.4368152273	-2.2409288628	 0.1357851592	 0.1269
H	-0.2303451409	-3.0594162935	-3.1755435595	 0.154382
H	 0.266429435	-1.4602925309	-2.5527413783	 0.138399
H	 0.9855481315	-2.9377489175	-1.8799064415	 0.125669
63.8804	92.745	104.5732	114.5285	128.4718	197.2808	237.6838	248.701	343.4354	348.1422	480.3864	538.246	563.9607	725.6293	746.9467	866.1027	932.2029	967.5898	1019.2728	1058.7743	1068.7977	1086.629	1143.0426	1156.0318	1172.4706	1188.4782	1197.7379	1222.4683	1238.9768	1272.6194	1298.3518	1357.8349	1413.6224	1428.2998	1445.7007	1468.767	1478.1362	1480.4239	1486.1905	1499.2914	1519.8537	1521.6305	1878.7771	2948.3687	2975.459	2982.2981	3020.5479	3020.94	3033.9541	3081.5891	3089.3877	3118.2571	3134.7211	3141.215
COCC1CC(=O)N1C	COC[C@H]1CC(=O)N1C	
InChI=1S/C6H11NO2/c1-7-5(4-9-2)3-6(7)8/h5H,3-4H2,1-2H3	InChI=1S/C6H11NO2/c1-7-5(4-9-2)3-6(7)8/h5H,3-4H2,1-2H3/t5-/m1/s1
