16
gdb 18605	3.50975	2.1908	1.74602	1.0822	58.83	-0.2539	0.063	0.3169	774.976	0.131984	-420.857525	-420.850859	-420.849915	-420.888743	25.617	
O	 0.2527299004	 1.2630250484	-0.5064355552	-0.439881
C	 0.0755649349	-0.0320611983	-0.0014666659	 0.126109
C	 0.0781431224	-0.2189233243	 1.5510684579	-0.299131
C	-1.3336809384	-0.8721058135	 1.4726378767	 0.08427
O	-2.4137914601	-0.1498063442	 2.0393108142	-0.242858
C	-2.6490420219	 0.9320219975	 1.1808014559	 0.007304
O	-2.3453162984	 0.4990987753	-0.1452429336	-0.275502
C	-1.3960794948	-0.5560198189	-0.0468594909	 0.036632
H	-0.6366503458	 1.6088708223	-0.6647510958	 0.292304
H	 0.7781367842	-0.7069672703	-0.502215119	 0.081881
H	 0.8647306698	-0.8647344805	 1.9469362343	 0.107341
H	 0.0897770793	 0.727119317	 2.0972145754	 0.115321
H	-1.4135537981	-1.9086512112	 1.7989027757	 0.094179
H	-3.705481063	 1.209506967	 1.2310887151	 0.127996
H	-2.0147356247	 1.7954280589	 1.4419248851	 0.095382
H	-1.6545130358	-1.3269179752	-0.7743684498	 0.088655
54.8017	210.8325	266.8229	380.1341	411.914	445.9474	555.9222	648.8226	724.4359	748.5921	807.2681	858.6984	901.0523	939.0268	953.8887	1002.1652	1041.7284	1064.4443	1104.3223	1134.1928	1167.1751	1174.5906	1179.8926	1221.7446	1244.3874	1263.2051	1275.4721	1331.7239	1338.9078	1360.4798	1416.9565	1439.0279	1463.7618	1542.5317	2961.7329	3045.6423	3070.2878	3092.1021	3099.8667	3118.117	3132.1165	3739.3272
OC1CC2OCOC12	O[C@H]1C[C@H]2OCO[C@@H]12	
InChI=1S/C5H8O3/c6-3-1-4-5(3)8-2-7-4/h3-6H,1-2H2	InChI=1S/C5H8O3/c6-3-1-4-5(3)8-2-7-4/h3-6H,1-2H2/t3-,4+,5-/m0/s1
