18
gdb 26687	2.24806	1.59462	0.94864	0.9966	77.34	-0.1866	0.0316	0.2182	1228.7391	0.145396	-439.120968	-439.110593	-439.109649	-439.156912	36.054	
C	 0.1704701913	 1.4491208301	 0.0736275249	-0.497263
C	-0.0253433725	-0.0208727166	 0.0322748806	 0.259437
C	-1.1268407535	-0.8073763096	-0.1076140007	 0.13319
O	-2.4032586949	-0.3433412261	-0.2527031846	-0.450097
C	-0.6999451893	-2.1805471279	-0.0741371856	 0.136284
C	-1.5593821798	-3.3975695632	-0.1906789597	-0.536083
C	 0.6516018853	-2.1307813882	 0.0861916583	 0.180575
N	 1.58889649	-3.165146385	 0.1841335553	-0.594551
O	 1.0786751219	-0.8312574253	 0.1527246489	-0.20984
H	 0.8237858389	 1.7998087635	-0.7347269382	 0.128496
H	-0.7988041372	 1.9415225044	-0.034809813	 0.143734
H	 0.6163917595	 1.7780555052	 1.0203038244	 0.128497
H	-2.9940315209	-1.0978524321	-0.3319024086	 0.297449
H	-2.1013363598	-3.4296705649	-1.1450787218	 0.121063
H	-0.9402930029	-4.2953649937	-0.1287199982	 0.150192
H	-2.308538939	-3.4514215835	 0.6102512078	 0.121076
H	 2.0904773559	-3.1391607016	 1.0674024735	 0.243919
H	 2.282074267	-3.1194406056	-0.5573808931	 0.243921
36.5239	90.0444	136.7296	153.1158	173.4314	194.6127	228.9864	242.2703	304.7366	310.5973	380.3716	536.9387	592.9525	614.2207	628.7886	688.1183	734.5725	806.5897	866.4927	973.3221	1029.6084	1063.5519	1065.1685	1130.2025	1175.8873	1213.52	1265.4251	1293.6587	1321.6164	1407.2626	1418.0456	1464.1306	1474.7867	1490.5445	1494.1199	1498.3352	1641.8415	1678.6472	1737.5084	3009.5119	3018.6902	3051.6305	3063.3734	3124.0632	3125.935	3484.0822	3546.0148	3840.8941
CC1=C(O)C(C)=C(N)O1	Cc1c(O)c(C)c(N)o1	
InChI=1S/C6H9NO2/c1-3-5(8)4(2)9-6(3)7/h8H,7H2,1-2H3	InChI=1S/C6H9NO2/c1-3-5(8)4(2)9-6(3)7/h8H,7H2,1-2H3
