18
gdb 67309	3.10655	1.46754	1.21793	2.1079	82.86	-0.2311	0.0307	0.2619	1069.2214	0.146357	-364.683967	-364.675967	-364.675023	-364.716161	31.541	
C	-0.0546106195	 1.5187621723	 0.0210896185	-0.529099
C	-0.0231689167	 0.0144774627	 0.012425624	 0.321958
C	 0.7944725317	-0.9683558155	-0.8866557702	-0.045932
C	 1.9935325813	-1.0179282511	 0.0632309486	-0.269001
C	 0.7487774057	-0.9701741269	 0.9535370732	-0.047009
N	-0.0064741572	-1.9478844971	 0.0120472646	-0.16361
C	-1.200112849	-0.9777046894	-0.0311910274	-0.22094
C	-2.1188651257	-1.0383206168	 1.0864457049	 0.324036
C	-2.8767453377	-1.0613525662	 2.0204164973	-0.431733
H	 0.955975498	 1.9370748529	 0.0803800415	 0.12311
H	-0.5272995548	 1.9076353515	-0.8874613269	 0.124016
H	-0.6248182612	 1.8861898071	 0.8807960601	 0.134626
H	 0.7519176246	-1.0646832002	-1.9736362156	 0.081439
H	 2.5567002026	-1.9544865942	 0.0763007337	 0.111845
H	 2.6540630682	-0.1478463752	 0.0797326615	 0.101168
H	 0.6537230434	-1.0670104137	 2.0351398313	 0.093926
H	-1.7376975544	-1.0442588852	-0.985111021	 0.094851
H	-3.5491104993	-1.0948720651	 2.8417336721	 0.19635
122.9131	130.2888	199.9803	251.216	289.8539	366.5394	393.0282	514.7093	548.7557	621.6251	631.9444	648.6501	730.8098	797.9149	854.2895	861.3346	871.3389	895.7358	919.8976	934.6313	1014.9486	1024.0717	1040.1499	1077.6137	1112.3608	1143.0846	1162.5011	1179.561	1197.8849	1220.0041	1228.7871	1278.1443	1328.6332	1383.9961	1409.3227	1483.4425	1487.7238	1493.7771	2229.1764	3028.987	3032.8755	3060.2001	3094.2824	3097.2865	3101.4174	3119.0885	3125.2428	3503.199
CC12C3CC1N3C2C#C	C[C@@]12[C@H]3C[C@@H]1N3[C@H]2C#C	
InChI=1S/C8H9N/c1-3-5-8(2)6-4-7(8)9(5)6/h1,5-7H,4H2,2H3	InChI=1S/C8H9N/c1-3-5-8(2)6-4-7(8)9(5)6/h1,5-7H,4H2,2H3/t5-,6-,7+,8-/m0/s1
