14
gdb 123673	4.33135	1.56711	1.37671	3.2512	66.4	-0.2388	-0.0186	0.2203	898.8105	0.103638	-436.60166	-436.595844	-436.5949	-436.631925	23.474	
C	-0.0514152458	 1.5954766176	-0.0513969551	-0.213942
C	 1.4863230125	 1.3121104191	 0.0050218829	-0.087439
O	 1.1703710289	 0.1879787001	 0.8991502923	-0.278096
C	-0.0281605827	 0.0343972596	 0.0397825177	-0.092525
C	 0.625017798	-0.3407617398	-1.2911434568	 0.222354
C	 1.6584261616	 0.5406017521	-1.3004035258	 0.420793
O	 2.4194000399	 0.4342194903	-2.3724247208	-0.236121
N	 1.8605079323	-0.6065842283	-3.1654599194	-0.144385
C	 0.8030697159	-1.0429406734	-2.4993239066	-0.177705
H	-0.4088186637	 2.0636014436	 0.8681573312	 0.121946
H	-0.4709897717	 2.0636321541	-0.9440407182	 0.115108
H	 2.2363273323	 2.0066357415	 0.373725765	 0.111515
H	-0.8237299768	-0.5611343899	 0.4797582361	 0.101331
H	 0.2315333293	-1.8475416565	-2.9403488426	 0.137167
124.5817	301.1862	398.5268	476.701	547.3389	619.3289	686.108	690.6312	747.6175	812.2689	825.5057	840.8981	883.8902	907.7547	922.6646	968.7762	1012.7393	1038.4763	1072.8114	1125.4856	1158.2069	1191.6656	1222.0926	1251.5307	1252.4704	1279.0152	1383.8875	1388.5532	1482.7128	1493.1278	1595.0195	3069.5826	3143.2414	3164.3558	3169.402	3243.5116
C1C2OC1C1=C2ON=C1	C1[C@H]2O[C@@H]1c1c2onc1	
InChI=1S/C6H5NO2/c1-4-3-2-7-9-6(3)5(1)8-4/h2,4-5H,1H2	InChI=1S/C6H5NO2/c1-4-3-2-7-9-6(3)5(1)8-4/h2,4-5H,1H2/t4-,5+/m0/s1
