13
gdb 8991	6.03064	0.91998	0.8427	3.6106	64.27	-0.2585	-0.0439	0.2146	1270.6786	0.092522	-398.593704	-398.585123	-398.584179	-398.628149	28.895	
O	-0.3794046208	 0.33842502	 0.4013606924	-0.226298
C	 0.1339594696	 1.379218254	 0.0909423919	 0.153936
C	 1.5062799105	 1.4879617813	-0.5620122625	-0.252067
N	 1.5848068254	 2.5812504915	-1.5053434729	-0.32864
C	 2.3451006285	 3.6951932365	-1.2639534457	 0.292604
O	 2.9885979765	 3.8660496863	-0.2460445059	-0.349191
C	 2.3108471838	 4.6636667716	-2.3498914011	 0.214028
C	 2.3008076403	 5.4803754211	-3.2318196017	-0.392368
H	-0.3603090082	 2.3617350631	 0.2664394807	 0.090191
H	 2.2386949807	 1.7049467688	 0.2254130984	 0.18001
H	 1.7631901414	 0.5289714005	-1.0222467114	 0.137172
H	 1.1046167813	 2.5146634226	-2.3885710557	 0.264578
H	 2.3016423011	 6.2115284528	-4.0034971264	 0.216046
48.3031	61.6995	90.0663	157.3039	260.1388	282.4363	365.8889	442.9954	488.5625	567.6907	605.5961	666.5874	686.4865	758.2985	767.3084	899.4817	1048.514	1084.2572	1116.5531	1231.3058	1266.0355	1336.1201	1411.2838	1443.3649	1528.9059	1762.0602	1841.8565	2229.4612	2883.1634	3044.1738	3100.6127	3494.7148	3641.1577
O=CCNC(=O)C#C	O=CCNC(=O)C#C	
InChI=1S/C5H5NO2/c1-2-5(8)6-3-4-7/h1,4H,3H2,(H,6,8)	InChI=1S/C5H5NO2/c1-2-5(8)6-3-4-7/h1,4H,3H2,(H,6,8)
