12
gdb 49950	2.3183	1.28121	0.98874	3.2499	66.42	-0.2912	-0.081	0.2102	1154.0109	0.075897	-431.651057	-431.642698	-431.641754	-431.684738	28.732	
O	-0.2876706545	 0.4992716049	 0.8218126912	-0.226065
C	 0.2351242671	 0.8514654205	-0.1998813759	 0.17812
C	 1.4344473193	 1.7604716721	-0.2107343284	-0.154107
N	 2.3061437116	 1.6520984414	-1.3735530017	-0.322257
C	 1.5263774519	 2.8901974816	-1.2338831607	 0.027348
C	 0.4784986954	 3.094623156	-2.2143402882	 0.293524
N	-0.3702960355	 3.2588949385	-2.9797173003	-0.309178
C	 2.1959773334	 4.0929518519	-0.7891835704	 0.259343
N	 2.7630524455	 5.0343804571	-0.4318988996	-0.304029
H	-0.1091626729	 0.530027273	-1.2032479918	 0.12575
H	 1.8511247523	 1.9834721263	 0.7680429961	 0.151662
H	 3.2819836365	 1.8149706467	-1.1352713002	 0.279888
79.4916	104.6059	134.7104	177.9756	224.553	306.8603	339.9978	461.6958	494.1783	526.3113	593.1379	623.0925	639.2316	808.5529	952.4883	965.7016	1005.7898	1063.6637	1081.6578	1198.8478	1214.7078	1322.3927	1368.1756	1431.9295	1836.4764	2361.6117	2371.5449	2944.8509	3164.8823	3515.7152
O=CC1NC1(C#N)C#N	O=C[C@H]1NC1(C#N)C#N	
InChI=1S/C5H3N3O/c6-2-5(3-7)4(1-9)8-5/h1,4,8H	InChI=1S/C5H3N3O/c6-2-5(3-7)4(1-9)8-5/h1,4,8H/t4-/m1/s1
