17
gdb 14487	4.48502	1.87952	1.7672	1.6868	71.66	-0.2074	0.075	0.2824	830.7978	0.140998	-326.618402	-326.611242	-326.610297	-326.649189	28.107	
C	 0.02693439	 1.4706583162	 0.0604887175	-0.517553
C	-0.0278271461	-0.0136597643	-0.02256579	 0.395238
C	-0.1121600291	-0.9910114728	-1.1688863817	-0.162413
C	 0.766120098	-1.953978594	-0.3388717491	-0.109869
N	 0.8704002419	-0.9560946421	 0.7916928348	-0.252857
C	-0.2390485121	-1.9794558889	 0.7589257165	 0.365683
C	-0.4955465516	-2.9329719947	 1.8741177689	-0.522787
C	-1.1581348581	-1.0128423433	-0.0394332138	-0.228345
H	 1.0173651975	 1.8432864752	-0.2231824196	 0.129717
H	-0.7121874935	 1.9180082263	-0.6127987057	 0.122411
H	-0.1867390937	 1.8143075339	 1.0787151612	 0.128713
H	-0.2584199073	-0.8350992916	-2.2285922346	 0.090923
H	 1.5805268267	-2.6245863977	-0.5892971293	 0.090575
H	-0.9951012401	-2.4333739137	 2.7119033373	 0.125704
H	-1.1273325557	-3.7665224773	 1.5473624236	 0.121358
H	 0.4515539296	-3.3412110813	 2.2407984223	 0.133589
H	-2.2293604265	-0.8767928801	-0.1001945483	 0.089911
179.6277	202.5206	204.5829	247.8736	313.6849	329.8313	556.1527	629.8944	664.436	751.0055	766.3781	801.0794	841.5911	851.9892	869.5274	876.8175	922.3214	973.9992	988.612	1019.2458	1053.6081	1087.8881	1109.1128	1126.6716	1155.5777	1191.7609	1247.1091	1264.6861	1395.3464	1399.2353	1437.3685	1462.2455	1473.2821	1478.2436	1491.0507	1497.7338	3025.4383	3026.2637	3089.0797	3091.3642	3100.2867	3106.8726	3170.1133	3203.8475	3215.5349
CC12C3C4N1C4(C)C23	C[C@@]12[C@H]3[C@H]4N1[C@@]4(C)[C@@H]23	
InChI=1S/C7H9N/c1-6-3-4(6)7(2)5(3)8(6)7/h3-5H,1-2H3	InChI=1S/C7H9N/c1-6-3-4(6)7(2)5(3)8(6)7/h3-5H,1-2H3/t3-,4-,5-,6+,7+,8?/m1/s1
