18
gdb 64513	4.32363	1.11918	1.09639	1.7517	71.79	-0.2285	0.0508	0.2793	1154.4899	0.147945	-438.998783	-438.990864	-438.98992	-439.031303	30.767	
O	-0.0399647989	 1.3632478414	 0.0784419991	-0.487518
C	-0.0221009864	-0.0324965777	 0.0306720355	 0.407157
C	 1.121226326	-0.6201047062	 0.7984676915	-0.047431
C	 2.4285892911	 0.0778089284	 0.8430567494	-0.245821
N	 1.5679982933	 0.0256997781	 2.0416475112	-0.331497
C	-1.3221278189	-0.8349509791	 0.0447595947	-0.196743
C	-2.3644730917	-0.0717937153	-0.7575070341	-0.116981
O	-1.4388987566	 0.0960453515	-1.8785358552	-0.3081
C	-0.4699195143	-0.7291680114	-1.2150135646	 0.000787
H	-0.3732254105	 1.657063691	-0.7809469344	 0.298706
H	 1.1058287982	-1.7072655926	 0.847405097	 0.088251
H	 3.3472241766	-0.4978667453	 0.9114670451	 0.113994
H	 2.5055539017	 1.0208422391	 0.3116616258	 0.121064
H	 1.0862740295	 0.9187428836	 2.127393611	 0.246109
H	-1.50481012	-1.6654191532	 0.7136163646	 0.109094
H	-3.2202219476	-0.6780150982	-1.0697232485	 0.121216
H	-2.7057284036	 0.8881523545	-0.3557940424	 0.117692
H	 0.0896013721	-1.4381821885	-1.8157190858	 0.11002
76.3423	160.3576	181.1799	267.1339	289.9464	363.2684	401.3638	444.6915	543.9085	613.0061	717.5784	774.8885	823.881	847.8891	884.4794	903.7601	939.5225	966.2251	975.8674	1009.1708	1014.3638	1026.9768	1062.8929	1086.4662	1107.0108	1129.6355	1147.5523	1163.4091	1185.8289	1234.1521	1267.1397	1276.769	1307.4508	1316.217	1364.3954	1386.1673	1465.619	1504.9557	1511.0739	3039.9496	3093.6433	3116.5494	3124.336	3170.0123	3203.1963	3209.5303	3496.2096	3744.2685
OC1(C2CN2)C2COC12	O[C@@]1([C@H]2CN2)[C@H]2CO[C@@H]12	
InChI=1S/C6H9NO2/c8-6(4-1-7-4)3-2-9-5(3)6/h3-5,7-8H,1-2H2	InChI=1S/C6H9NO2/c8-6(4-1-7-4)3-2-9-5(3)6/h3-5,7-8H,1-2H2/t3-,4+,5+,6+/m0/s1
