13
gdb 21055	3.9739	1.87059	1.28218	3.0737	55.79	-0.2195	0.0367	0.2562	877.8936	0.096799	-431.951867	-431.944498	-431.943554	-431.983605	26.411	
C	-0.048201432	 1.4403109686	-0.0492439644	-0.327353
N	 0.0310390758	-0.0000349992	-0.0069290245	-0.023137
N	 0.0859304735	-0.7486577488	-1.1695950306	-0.340381
C	 0.1484807841	-1.9701379239	-0.6868029064	 0.434515
O	 0.2169180702	-3.0370593243	-1.4940624242	-0.407555
N	 0.1401018617	-2.0928146422	 0.6733301118	-0.466776
C	 0.065520265	-0.8279585655	 1.044079047	 0.463602
O	 0.0256878585	-0.3638289577	 2.2985177181	-0.422608
H	 0.8267210252	 1.8517127197	-0.5601109537	 0.151036
H	-0.9496010342	 1.7530152006	-0.5834361364	 0.151108
H	-0.0824342447	 1.8146159	 0.9744418896	 0.156701
H	 0.2526121902	-3.8135012576	-0.9234591475	 0.309632
H	 0.0619575568	-1.1316761596	 2.882185561	 0.321217
85.921	151.8895	247.8342	276.1905	341.2366	377.3125	383.0051	404.4175	569.9813	651.7895	681.4842	701.5318	768.3025	866.6169	1034.3696	1074.0218	1156.8455	1169.3742	1220.45	1285.1105	1331.4618	1445.7483	1457.7732	1476.5984	1510.4442	1566.0161	1615.3075	1683.3251	3050.1695	3113.7364	3157.5931	3812.1974	3821.8577
CN1N=C(O)N=C1O	Cn1nc(O)nc1O	
InChI=1S/C3H5N3O2/c1-6-3(8)4-2(7)5-6/h1H3,(H2,4,5,7,8)	InChI=1S/C3H5N3O2/c1-6-3(8)4-2(7)5-6/h1H3,(H2,4,5,7,8)
