22
gdb 121030	3.00605	0.92862	0.8003	3.1779	83.87	-0.2523	0.0329	0.2852	1538.6782	0.19505	-404.387848	-404.378429	-404.377485	-404.422881	34.873	
C	 0.4083932957	 1.4810135131	 0.0522791239	-0.38329
C	 0.1365873938	-0.0241716117	-0.0076391157	-0.166046
C	 0.6919192515	-0.6795446044	-1.2764959155	-0.17751
C	 0.4373588178	-2.1850844147	-1.3511136873	 0.100892
C	 1.0739533049	-2.8792401645	-2.5720598614	-0.249258
C	 2.4315601762	-3.3438151838	-2.0278099156	-0.300023
C	 2.169540452	-3.5147760554	-0.5471489317	 0.415362
N	 2.8871454663	-4.1678051141	 0.2608940994	-0.543044
O	 1.0247092618	-2.8500964455	-0.2066970243	-0.244893
H	 1.4837972849	 1.6903478064	 0.0350884113	 0.116007
H	-0.0424481446	 2.0019320227	-0.7999941064	 0.112176
H	-0.0006856723	 1.9225543109	 0.9661312073	 0.114918
H	 0.573140576	-0.5188041723	 0.8664419219	 0.116741
H	-0.94521436	-0.2057151685	 0.0462638922	 0.094064
H	 0.2359914731	-0.2182744436	-2.1631162907	 0.096981
H	 1.7720109659	-0.4919710102	-1.3493250525	 0.098154
H	-0.6394532202	-2.3753753029	-1.2896360596	 0.087107
H	 0.4688255705	-3.7402921048	-2.8701939665	 0.114466
H	 1.1528305311	-2.2100082279	-3.4313922306	 0.109432
H	 2.8035334241	-4.2696941234	-2.4668563753	 0.136562
H	 3.20683316	-2.5823399429	-2.1659936775	 0.132724
H	 2.4992225713	-4.1142363324	 1.2045581645	 0.218481
59.655	88.3321	110.69	130.1395	184.8952	248.9176	317.4341	363.6712	451.7293	486.2457	520.221	649.2686	703.0795	756.4528	811.612	831.9543	893.2227	897.8959	901.6074	921.4187	963.6919	996.7731	1033.9608	1054.2117	1065.3865	1100.2348	1116.9862	1140.5493	1195.2035	1224.8463	1262.3975	1274.6343	1291.0878	1314.5786	1328.4311	1332.6165	1370.1593	1400.6124	1406.1947	1415.4772	1472.659	1477.4083	1493.3761	1499.6289	1501.0597	1510.2884	1775.615	3009.6828	3021.8169	3029.4611	3039.4266	3054.629	3056.7447	3066.8461	3074.4229	3098.7811	3103.7176	3113.5231	3133.0314	3468.649
CCCC1CCC(=N)O1	CCC[C@H]1CC[C]([NH])O1	
InChI=1S/C7H13NO/c1-2-3-6-4-5-7(8)9-6/h6,8H,2-5H2,1H3	InChI=1S/C7H13NO/c1-2-3-6-4-5-7(8)9-6/h6,8H,2-5H2,1H3/t6-/m0/s1
