21
gdb 108978	3.66456	1.13514	1.05626	1.7719	83.81	-0.2272	0.0104	0.2377	1250.4331	0.184036	-387.084517	-387.076367	-387.075422	-387.117431	32.152	
C	-0.2205438103	 1.5431388503	-0.0806534147	-0.373616
C	 0.1260878749	 0.0466199482	 0.0211757112	-0.277266
C	 0.8222362887	-0.5011180486	-1.1955695268	 0.329207
C	 2.083370631	-0.9440198437	-1.2012868276	-0.1742
C	 2.630281717	-1.4440213533	-2.5208535186	 0.050605
C	 1.6455211402	-2.4721707086	-3.129107913	-0.239796
C	 0.9553731807	-1.1740225638	-3.6031715457	 0.086126
C	 0.0633752736	-0.5558332907	-2.5155477029	-0.306701
O	 2.245962831	-0.4997872922	-3.5724234004	-0.295096
H	 0.6823777639	 2.1413614115	-0.2371408537	 0.124706
H	-0.9034940752	 1.7450747532	-0.9114897316	 0.119498
H	-0.7049811974	 1.8900284981	 0.837235529	 0.113207
H	 0.760069227	-0.11858602	 0.8996415926	 0.099979
H	-0.801683764	-0.5177951983	 0.1942300369	 0.09822
H	 2.6988838955	-0.9616456436	-0.3069129267	 0.081032
H	 3.7028435669	-1.6471983368	-2.5195782569	 0.071981
H	 2.0811138247	-3.0183033895	-3.9676797734	 0.105821
H	 1.1158743567	-3.1451398493	-2.4522405219	 0.096826
H	 0.4961772432	-1.1472534954	-4.5952188529	 0.072442
H	-0.8625995303	-1.1376700146	-2.4015351002	 0.101214
H	-0.2417861881	 0.4515112568	-2.8260300927	 0.115812
61.2876	119.3954	212.6204	246.5594	317.1421	349.7549	406.0748	479.5072	513.061	571.8717	634.3456	776.7336	786.5696	837.3256	843.2403	869.7802	877.6872	916.7236	943.9238	966.2002	981.745	998.7184	1051.7155	1074.4428	1091.3086	1096.5001	1106.135	1174.9938	1200.3806	1223.7319	1248.136	1274.0391	1313.7858	1322.3184	1325.5739	1351.245	1357.887	1387.6166	1407.3891	1461.6547	1480.1404	1485.7353	1498.2279	1507.584	1711.6769	3002.2622	3009.4091	3038.2798	3045.8381	3058.4849	3066.6466	3075.6391	3094.8212	3108.563	3112.671	3136.0197	3171.2183
CCC1=CC2CC(C1)O2	CCC1=C[C@H]2C[C@@H](C1)O2	
InChI=1S/C8H12O/c1-2-6-3-7-5-8(4-6)9-7/h3,7-8H,2,4-5H2,1H3	InChI=1S/C8H12O/c1-2-6-3-7-5-8(4-6)9-7/h3,7-8H,2,4-5H2,1H3/t7-,8+/m0/s1
