17
gdb 94504	3.67663	0.77971	0.68793	2.8983	80.8	-0.2619	-0.0652	0.1967	1596.1132	0.133585	-421.785372	-421.7758	-421.774856	-421.82244	32.243	
C	-0.3970834949	 1.4436579135	-0.0124395401	-0.40143
C	 0.0808046367	 0.0092857304	-0.0491304526	 0.155944
O	 1.3088104452	-0.1538856887	-0.7971664968	-0.281441
C	 2.0158250767	-0.6843923753	 0.3317699627	-0.073582
C	 0.7499589048	-0.5978045064	 1.2330184486	-0.273188
C	 0.8353167072	 0.2059676175	 2.428385258	 0.159608
C	 0.9070972628	 0.8892697784	 3.42355141	-0.00976
C	 1.0194183132	 1.6766607095	 4.6239429807	 0.020734
O	 0.3360173758	 2.6423152368	 4.8772520838	-0.227937
H	 0.3590046293	 2.1027967716	 0.4219454082	 0.133221
H	-0.6124575325	 1.7824937409	-1.0302713876	 0.131058
H	-1.3125104171	 1.5287896583	 0.5818822878	 0.128773
H	-0.7012178551	-0.6467731932	-0.4524966882	 0.086259
H	 2.3857901928	-1.7010800576	 0.1564667231	 0.112279
H	 2.8475500892	-0.0429421427	 0.6434257715	 0.116285
H	 0.3460928872	-1.5819379602	 1.4860336592	 0.123298
H	 1.8032766288	 1.3237646672	 5.3248584817	 0.099878
19.1389	47.7392	68.1737	128.1874	181.4009	225.5637	258.2239	333.7677	409.7154	443.0193	532.2564	642.0812	743.2762	767.8971	880.713	889.5692	939.5725	1001.3565	1021.5654	1048.7299	1071.3964	1092.3696	1144.6256	1164.8955	1192.6753	1210.2518	1283.0986	1344.6942	1355.4113	1384.8695	1412.0676	1422.8811	1479.9882	1488.9256	1527.1487	1766.2752	2320.1998	2918.2002	3017.3751	3026.4226	3042.8336	3065.9126	3079.8894	3115.6696	3126.8479
CC1OCC1C#CC=O	C[C@H]1OC[C@H]1C#CC=O	
InChI=1S/C7H8O2/c1-6-7(5-9-6)3-2-4-8/h4,6-7H,5H2,1H3	InChI=1S/C7H8O2/c1-6-7(5-9-6)3-2-4-8/h4,6-7H,5H2,1H3/t6-,7-/m1/s1
