19
gdb 32900	4.01491	0.83179	0.7231	1.4796	80.41	-0.2047	0.0238	0.2286	1576.1025	0.158514	-423.062992	-423.053537	-423.052593	-423.09815	33.799	
C	 0.2207877794	 1.3622817998	-0.2061534935	-0.491947
C	-0.0459708894	-0.0866831122	-0.0098671442	 0.346873
C	-1.1526262586	-0.8010863844	 0.3270463998	-0.255802
C	-0.7568485583	-2.1795295428	 0.3560745898	-0.267527
C	 0.5642989376	-2.2120931409	 0.0371354572	 0.339466
C	 1.561622531	-3.3057174465	-0.1131620438	-0.298511
C	 2.0573236066	-3.4755934053	-1.5522211073	-0.067571
O	 3.0074842704	-4.5291918564	-1.5505900353	-0.419302
O	 1.009136242	-0.9364200809	-0.1903179082	-0.216636
H	 0.9853700344	 1.7302001348	 0.4879201503	 0.136451
H	 0.5743426912	 1.5742489434	-1.2219406116	 0.134635
H	-0.6951845201	 1.9331132672	-0.0381322939	 0.134016
H	-2.13142906	-0.3962279117	 0.5330318184	 0.102878
H	-1.374260618	-3.0336179137	 0.588013686	 0.104262
H	 2.4339183546	-3.1245822511	 0.5269586972	 0.122355
H	 1.1087421562	-4.2444552749	 0.2193231221	 0.120296
H	 1.2026610394	-3.7012890278	-2.2089474992	 0.090067
H	 2.5010369537	-2.530415299	-1.8985262382	 0.09933
H	 3.342862988	-4.6330546675	-2.4456139155	 0.286665
54.5634	88.9114	100.3963	136.0971	221.6578	248.4709	267.1589	336.4949	364.0444	407.2623	634.7796	639.1841	670.8832	763.4233	793.9034	797.2554	826.1184	953.5348	985.5249	1005.2809	1019.6311	1043.6309	1064.7157	1068.0917	1079.5342	1204.6817	1225.4398	1241.2014	1246.1702	1251.2609	1308.3391	1339.0418	1394.282	1416.2129	1453.8992	1472.7194	1477.0698	1492.6914	1528.7242	1604.2683	1658.8432	2977.043	3011.8985	3027.6845	3035.8107	3076.401	3097.1016	3127.8997	3246.7521	3260.4692	3833.061
CC1=CC=C(CCO)O1	Cc1ccc(CCO)o1	
InChI=1S/C7H10O2/c1-6-2-3-7(9-6)4-5-8/h2-3,8H,4-5H2,1H3	InChI=1S/C7H10O2/c1-6-2-3-7(9-6)4-5-8/h2-3,8H,4-5H2,1H3
