19
gdb 12231	3.41544	1.51512	1.18275	2.301	74.8	-0.2433	0.0348	0.2782	1088.2257	0.164053	-365.071234	-365.062097	-365.061152	-365.105183	32.326	
C	 0.2038140654	 1.4177896263	-0.0815584631	-0.338603
N	 0.4068430136	-0.0206855517	 0.0220914969	-0.333798
C	 0.562896187	-0.6920060527	-1.0215367191	 0.467386
O	 0.5875508073	-0.3019602655	-2.3517209482	-0.285801
C	 0.8701442683	-1.6741391597	-2.7932794419	 0.136121
C	 2.1704114264	-1.7577056876	-3.5626416273	-0.400937
C	 0.8045571886	-2.1586356267	-1.313704047	-0.171917
C	 2.0097803741	-2.8139553259	-0.6505046562	-0.406673
H	 0.9464439076	 1.9297704136	 0.5402685567	 0.123722
H	 0.2708029737	 1.8081871949	-1.1039102487	 0.12419
H	-0.7813622259	 1.6727126208	 0.3254837552	 0.125147
H	 0.0351864527	-2.0307956709	-3.4052281165	 0.089478
H	 3.0086689623	-1.3706302491	-2.9776967386	 0.129059
H	 2.3853451655	-2.7960577049	-3.8361669308	 0.123221
H	 2.0985591547	-1.1717392804	-4.4837625277	 0.132456
H	-0.0933072526	-2.7555004257	-1.1258736941	 0.103447
H	 2.9263748528	-2.2397553931	-0.8087179356	 0.12446
H	 1.8431250313	-2.8765535255	 0.4283352809	 0.141905
H	 2.168279327	-3.8282804164	-1.0304279749	 0.117134
76.191	85.232	145.2933	181.6027	201.6117	221.3877	265.8785	301.9465	392.6405	469.4476	548.4011	655.3255	733.0044	773.4036	837.2538	879.7872	1001.6081	1026.708	1043.7598	1052.9121	1086.987	1124.6299	1133.3752	1157.9275	1171.7778	1198.5091	1250.9902	1317.5144	1360.3785	1383.1628	1411.3139	1414.1909	1440.3841	1479.8822	1490.8936	1495.2003	1497.8252	1498.0697	1506.249	1844.5452	3015.2484	3040.7165	3044.64	3049.1774	3066.4489	3078.9419	3085.0798	3110.7882	3113.6733	3120.8499	3128.2799
CN=C1OC(C)C1C	CN=C1O[C@@H](C)[C@H]1C	
InChI=1S/C6H11NO/c1-4-5(2)8-6(4)7-3/h4-5H,1-3H3	InChI=1S/C6H11NO/c1-4-5(2)8-6(4)7-3/h4-5H,1-3H3/t4-,5+/m1/s1
