21
gdb 39681	4.04811	1.05112	0.90689	0.9277	78.82	-0.2491	0.0907	0.3398	1341.818	0.183819	-424.215681	-424.207075	-424.206131	-424.250371	31.474	
C	 0.1101069827	 1.2206708869	-0.4444700916	-0.205805
C	 1.5040656209	 1.5909772289	 0.1355546432	-0.224759
C	 1.5129048701	 0.2483521374	 0.9233214327	-0.010364
C	-0.0083879098	 0.1005729712	 0.6268658471	-0.225849
C	 2.359844514	-0.8221809832	 0.272416712	 0.222769
O	 3.7422026514	-0.5035673144	 0.3796266307	-0.274777
C	 4.4557506587	-1.7083945623	 0.6384032853	-0.087709
C	 3.3619514386	-2.7929252666	 0.6462892761	-0.110642
O	 2.1844235788	-2.0567781308	 0.9294991172	-0.252437
H	-0.6550733963	 2.0003441938	-0.4349716643	 0.096045
H	 0.1734830515	 0.8212747711	-1.4604847243	 0.102209
H	 2.3222199408	 1.7464812965	-0.5715728426	 0.109287
H	 1.4622954419	 2.4523538789	 0.8064854348	 0.100766
H	 1.8029840998	 0.3026443947	 1.9753028528	 0.073601
H	-0.617932878	 0.4020952347	 1.4821147444	 0.101041
H	-0.3469028119	-0.8838651993	 0.2947634791	 0.106978
H	 2.1048994952	-0.9355388812	-0.8005204216	 0.053513
H	 5.2105886788	-1.8815286782	-0.1377216561	 0.103105
H	 4.9619663457	-1.6266566802	 1.6079257827	 0.107615
H	 3.2882533951	-3.2894945212	-0.3334690815	 0.097659
H	 3.4952316721	-3.5522588568	 1.4196443239	 0.117753
41.8431	70.8318	101.2731	154.5158	188.8526	300.7324	417.9082	429.6576	676.3128	686.0523	733.8501	762.4598	853.6809	874.7534	893.3143	926.9677	929.3743	948.6442	962.3677	983.3544	1010.0326	1054.8266	1070.2456	1080.7799	1130.9054	1160.6733	1186.8608	1193.835	1224.4506	1233.2053	1251.0647	1253.7631	1258.5606	1280.734	1288.0475	1326.2932	1337.1612	1378.2664	1391.0351	1448.7362	1478.934	1484.6922	1507.8447	1514.6025	1531.9235	2897.6434	2986.6407	3020.7252	3057.3521	3058.6083	3062.4243	3064.8007	3081.5637	3097.5596	3108.6188	3113.4089	3123.5198	41.8434	70.8323	101.2732	154.516	188.8533	300.7325	417.9083	429.6576	676.3128	686.0523	733.8501	762.4598	853.6809	874.7535	893.3144	926.9677	929.3743	948.6443	962.3678	983.3546	1010.0328	1054.8267	1070.246	1080.78	1130.9058	1160.6732	1186.8608	1193.8351	1224.4508	1233.2053	1251.0646	1253.763	1258.5606	1280.734	1288.0475	1326.2931	1337.1612	1378.2664	1391.0351	1448.7362	1478.934	1484.6923	1507.8447	1514.6023	1531.9237	2897.6435	2986.6409	3020.7253	3057.3521	3058.6083	3062.4243	3064.8007	3081.5637	3097.5596	3108.6189	3113.4089	3123.5198
C1CC(C1)C1OCCO1	C1CC(C1)C1OCCO1	
InChI=1S/C7H12O2/c1-2-6(3-1)7-8-4-5-9-7/h6-7H,1-5H2	InChI=1S/C7H12O2/c1-2-6(3-1)7-8-4-5-9-7/h6-7H,1-5H2
