22
gdb 116053	3.06026	1.09142	0.85798	2.433	83.68	-0.2387	0.0214	0.2601	1400.9871	0.195537	-404.360675	-404.35142	-404.350476	-404.395304	34.378	
C	 0.1132992224	 1.6201001666	 0.0725836831	-0.394739
C	 0.063203616	 0.089745317	 0.0008086677	-0.184138
C	 0.6380643236	-0.5246623964	-1.2933347148	 0.016388
C	 0.8371212974	-2.0367348817	-1.1441300957	-0.219745
C	 1.6590632927	-2.6847266508	-2.2632883566	-0.158563
N	 1.1432308158	-2.6819424718	-3.6207254273	-0.245255
C	 0.6021392239	-1.7036087805	-4.1994828951	 0.115606
O	 0.2579268656	-0.4534943114	-3.7807394412	-0.233754
C	-0.2814561578	-0.2196384315	-2.4764950389	-0.06419
H	 1.1383126087	 1.9864080478	-0.0513387432	 0.119297
H	-0.503154496	 2.0968129076	-0.6956353077	 0.121067
H	-0.2497212678	 1.9732973218	 1.0427019597	 0.11719
H	 0.6255245545	-0.3195477442	 0.8483960622	 0.099483
H	-0.97139744	-0.2550054943	 0.1366692567	 0.097041
H	 1.61336023	-0.0569970776	-1.4938096678	 0.07671
H	 1.3538744131	-2.245490326	-0.1988131732	 0.09391
H	-0.1431734145	-2.5290215196	-1.0773331968	 0.098164
H	 2.6500842326	-2.2056229486	-2.2907773614	 0.110769
H	 1.8415292489	-3.731362962	-1.9952790647	 0.105212
H	 0.3796000692	-1.7835731792	-5.2651138883	 0.113548
H	-1.2089971104	-0.8015776489	-2.3705809194	 0.103188
H	-0.5498967676	 0.8384739638	-2.4984116374	 0.11281
51.9918	78.1084	148.9047	182.0903	225.5025	264.0127	311.7597	368.1584	412.3723	445.9601	496.7502	548.059	740.8942	773.0883	823.1512	856.8516	917.0795	924.8307	957.0676	971.9971	977.7878	1031.7729	1046.5132	1069.4281	1118.8617	1149.2591	1155.7523	1170.7729	1223.624	1267.7405	1293.5664	1314.0317	1333.9446	1360.5427	1372.9742	1388.6768	1400.4984	1416.6927	1429.4159	1434.9533	1475.7219	1487.6514	1489.6999	1497.3505	1503.3707	1509.0189	1761.835	2991.4035	2996.3666	3003.282	3009.0139	3019.69	3036.0108	3049.1221	3052.6348	3057.1452	3101.1547	3102.9219	3111.4981	3120.5255
CCC1CCN=COC1	CC[C@H]1CCN=COC1	
InChI=1S/C7H13NO/c1-2-7-3-4-8-6-9-5-7/h6-7H,2-5H2,1H3	InChI=1S/C7H13NO/c1-2-7-3-4-8-6-9-5-7/h6-7H,2-5H2,1H3/t7-/m0/s1
