13
gdb 16272	3.09164	2.14259	1.4818	5.8702	60.44	-0.2558	-0.0361	0.2197	820.57	0.095027	-398.595472	-398.588599	-398.587655	-398.626813	25.048	
O	-0.2298166851	 0.02277806	 0.1270006313	-0.24297
C	-0.0582573418	 1.2109605001	 0.0329239057	 0.070189
C	 1.258441742	 1.869479589	 0.0010126294	 0.073973
C	 1.4449309836	 3.3595636495	 0.3598154942	-0.325492
C	 1.7653715515	 2.9133479921	-1.0157574967	-0.029967
N	 3.0321040398	 2.1904506966	-1.0953466103	-0.339178
C	 2.6605401921	 1.2583142132	-0.1055913385	 0.373221
O	 3.2643333271	 0.3761005325	 0.4244550787	-0.318883
H	-0.916444717	 1.9195454096	-0.0456693228	 0.070607
H	 0.5135730802	 3.9036687167	 0.4974144917	 0.139564
H	 2.2385210352	 3.6283286779	 1.0499591943	 0.142404
H	 1.2555953655	 3.2391254098	-1.9128741391	 0.135005
H	 3.9399557269	 2.6403530629	-1.1292121379	 0.251526
96.9807	142.8209	221.0031	264.6822	438.4819	458.4718	490.9187	566.4143	705.5288	726.2145	785.743	824.1736	881.7064	964.5782	968.3546	1016.8373	1041.128	1063.9657	1104.4352	1131.0461	1231.7635	1304.5579	1326.8923	1373.3119	1433.5293	1479.1963	1814.3559	1917.0796	2848.4973	3117.5944	3205.894	3213.4793	3552.307
O=CC12CC1NC2=O	O=C[C@]12C[C@H]1NC2=O	
InChI=1S/C5H5NO2/c7-2-5-1-3(5)6-4(5)8/h2-3H,1H2,(H,6,8)	InChI=1S/C5H5NO2/c7-2-5-1-3(5)6-4(5)8/h2-3H,1H2,(H,6,8)/t3-,5-/m1/s1
