21
gdb 88834	3.03176	1.08008	0.8877	1.9926	79.05	-0.2452	0.0835	0.3288	1372.0939	0.181064	-424.190868	-424.181299	-424.180355	-424.226213	34.64	
C	 0.2480177528	 1.401281336	-0.4369503022	-0.422799
C	-0.1594147522	 0.0606631255	 0.1180305027	 0.065436
O	 0.8530360507	-0.9455101781	 0.2321507107	-0.270877
C	 0.2312184104	-0.4756353074	 1.4359263895	 0.060523
C	 1.1012403285	 0.2389173454	 2.4314580183	-0.098787
C	 0.3805911589	 0.665190728	 3.7311236533	-0.086274
O	 1.0894378749	-0.3147920404	 4.5092636524	-0.291009
C	 1.9491510318	-0.6518390601	 3.3910214469	 0.152322
C	 2.0657185866	-2.1441788343	 3.1621876078	-0.400529
H	 1.1906966085	 1.7521871189	-0.01302199	 0.130714
H	 0.3738573428	 1.3326133433	-1.5225330247	 0.132511
H	-0.5277289608	 2.1487142293	-0.2377859078	 0.123395
H	-1.0987351834	-0.3202989272	-0.2901427579	 0.088821
H	-0.4526245929	-1.2017399889	 1.8819191828	 0.092857
H	 1.6802721334	 1.0232427121	 1.9444809948	 0.077432
H	 0.595222086	 1.691109326	 4.0579392146	 0.097599
H	-0.7050112979	 0.5061749711	 3.7592551242	 0.099969
H	 2.9505045329	-0.2239063907	 3.5453601981	 0.072166
H	 1.0850923289	-2.6099409152	 3.0369963333	 0.120844
H	 2.6634601456	-2.345021299	 2.26761496	 0.132179
H	 2.5569154846	-2.6132190443	 4.0205050633	 0.123507
43.9768	65.1624	125.8456	168.1325	199.0941	223.7776	262.0296	353.2452	394.8092	411.5746	490.6203	571.6002	746.1489	777.6445	825.1952	877.6363	885.2311	903.5405	972.0849	1005.0226	1022.9137	1029.4741	1059.3404	1095.7719	1098.9588	1149.9324	1161.0306	1168.4875	1181.2632	1212.7168	1238.1836	1283.5289	1303.907	1323.9113	1361.7534	1388.923	1404.7723	1412.7532	1425.7229	1471.3779	1479.6479	1491.323	1500.4578	1513.0746	1527.4439	2988.8666	3006.1027	3039.8753	3043.4036	3045.1236	3071.5835	3085.1399	3100.246	3110.9267	3113.3591	3127.7129	3136.5361
CC1OC1C1COC1C	C[C@H]1O[C@H]1[C@H]1CO[C@H]1C	
InChI=1S/C7H12O2/c1-4-6(3-8-4)7-5(2)9-7/h4-7H,3H2,1-2H3	InChI=1S/C7H12O2/c1-4-6(3-8-4)7-5(2)9-7/h4-7H,3H2,1-2H3/t4-,5+,6-,7+/m0/s1
