14
gdb 52375	6.69152	0.58194	0.53899	1.8648	65.65	-0.2735	-0.0977	0.1758	1859.5631	0.096156	-473.821803	-473.812035	-473.811091	-473.858736	31.207	
O	-0.1608279713	 0.2078051511	 0.6140078108	-0.229075
C	 0.0739034619	 1.0963058802	-0.1585916062	 0.138802
C	 1.3743892052	 1.885680343	-0.1449402449	-0.14896
O	 1.3114488699	 2.8417802544	-1.1801045074	-0.231418
C	 2.4472061448	 3.6371195586	-1.278771916	-0.162082
C	 2.2765491782	 4.6267785165	-2.4161133665	 0.284384
O	 1.3141816054	 4.7176453047	-3.1259486161	-0.231729
C	 3.4488853686	 5.5148142432	-2.5887971199	 0.208947
N	 4.3714870211	 6.2007310563	-2.7110998046	-0.287196
H	-0.6372780125	 1.4184881819	-0.9491991101	 0.112078
H	 1.4951376566	 2.3582223191	 0.8432881012	 0.133569
H	 2.216979578	 1.1885324549	-0.2808383145	 0.13357
H	 2.6463979237	 4.2135465891	-0.3562831284	 0.139553
H	 3.3636738405	 3.0504402072	-1.4756916074	 0.139557
39.2771	58.1659	80.2849	88.1518	127.1953	163.0494	262.7775	277.2359	356.6075	460.2309	570.3385	579.0949	603.126	742.9502	849.9115	1010.3024	1011.7299	1064.358	1109.1368	1113.5423	1207.8631	1236.1615	1253.1821	1343.0308	1396.7771	1422.4697	1461.6861	1497.916	1823.7114	1848.5592	2339.9492	2915.4881	2942.3542	2964.2112	2976.1545	3010.733
O=CCOCC(=O)C#N	O=CCOCC(=O)C#N	
InChI=1S/C5H5NO3/c6-3-5(8)4-9-2-1-7/h1H,2,4H2	InChI=1S/C5H5NO3/c6-3-5(8)4-9-2-1-7/h1H,2,4H2
