15
gdb 78345	2.84544	1.39677	1.05881	2.5865	67.56	-0.2433	-0.0303	0.213	1100.3019	0.110929	-457.711906	-457.704104	-457.70316	-457.744249	29.434	
O	-0.0195895024	 1.2513875176	-0.1226106231	-0.424747
C	-0.0725911424	-0.1359381472	-0.0378168231	 0.092606
C	-0.4890083934	-0.6992579648	 1.3342234688	-0.238069
C	-1.4412168147	-0.6826467128	 0.0901740221	-0.19224
C	-1.387508107	-2.1958964551	 0.0563971346	 0.336338
C	-2.4305499021	-3.1723385456	-0.2681567807	-0.263202
O	-1.2736177362	-3.0093681435	-1.0944325195	-0.265472
C	-0.4689926501	-2.1981422546	 1.290616604	 0.346725
O	-0.0377703804	-3.063409405	 1.9983194151	-0.32215
H	 0.8482785982	 1.5404988702	 0.1786921664	 0.297847
H	 0.6733131735	-0.665724366	-0.629692657	 0.118684
H	-0.4839013675	-0.0531762358	 2.2015239377	 0.122393
H	-2.3174173983	-0.0639610757	-0.0480693454	 0.124311
H	-2.4758743758	-4.1021812477	 0.295739713	 0.140278
H	-3.3682908013	-2.8258324743	-0.6997684229	 0.126699
115.3465	156.6876	212.8846	245.7003	280.3354	308.4132	398.9928	432.4784	525.5188	646.606	667.042	780.4211	789.8218	850.8086	882.9162	893.0895	932.7708	978.0876	983.9573	1073.0537	1094.9164	1112.5767	1123.5497	1138.4067	1167.2076	1198.7906	1208.6705	1267.526	1303.7778	1434.0729	1458.5503	1523.8665	1882.0236	3087.9743	3104.5238	3182.7002	3214.4096	3221.4976	3812.3922
OC1C2C1C1(CO1)C2=O	O[C@H]1[C@H]2[C@@H]1[C@]1(CO1)C2=O	
InChI=1S/C6H6O3/c7-4-2-3(4)6(1-9-6)5(2)8/h2-4,7H,1H2	InChI=1S/C6H6O3/c7-4-2-3(4)6(1-9-6)5(2)8/h2-4,7H,1H2/t2-,3+,4+,6-/m1/s1
