17
gdb 38522	3.02665	2.12964	1.51733	2.7212	71.59	-0.2207	0.0029	0.2236	869.9285	0.139351	-417.950578	-417.944347	-417.943403	-417.980907	25.965	
C	-0.0028939727	 1.5302216404	-0.1385268148	-0.20045
C	 1.5436365423	 1.5397780227	 0.0635952004	 0.07203
O	 1.9227795826	 1.8381702251	 1.4506157534	-0.275512
C	 1.4758692062	 0.5721677609	 1.7971855506	 0.359174
N	 0.7975459061	 0.2335826834	 2.8040438994	-0.262196
C	-0.0124326729	-0.9285680222	 2.4096435523	-0.178375
C	-0.8767464664	-0.5238061294	 1.1681453043	-0.171466
N	-0.0544688651	 0.0447552642	 0.0827545768	-0.085375
C	 1.3957551467	 0.0460501155	 0.3839117935	-0.155461
H	-0.5413803623	 2.1363403432	 0.5985916425	 0.127759
H	-0.3285486575	 1.8001195905	-1.1471079091	 0.119115
H	 2.2076210864	 2.0063493929	-0.6590829083	 0.106033
H	 0.599975861	-1.8024606266	 2.141790974	 0.107438
H	-0.6594480399	-1.2269412068	 3.2375506377	 0.112908
H	-1.4162655513	-1.4072606467	 0.8069943818	 0.10836
H	-1.6233750358	 0.2168572514	 1.4776797308	 0.114784
H	 2.0125088426	-0.7768571985	 0.0237614349	 0.101234
156.7166	308.9141	359.8406	399.0474	451.8651	508.8744	552.4351	639.8955	728.0019	771.2569	803.0739	866.729	876.6259	903.8764	908.406	939.7712	982.4917	1000.119	1049.9088	1059.1199	1111.7998	1112.8546	1144.7245	1187.193	1198.0847	1221.5206	1241.8789	1252.0022	1264.536	1304.3563	1327.8213	1336.2888	1360.5632	1483.3201	1499.6691	1504.8202	1752.8904	2993.5525	3027.1727	3039.4997	3069.0357	3095.9713	3099.5882	3111.5529	3160.457
C1C2OC3=NCCN1C23	C1[C@H]2O[C]3[N]CCN1[C@@H]23	
InChI=1S/C6H8N2O/c1-2-8-3-4-5(8)6(7-1)9-4/h4-5H,1-3H2	InChI=1S/C6H8N2O/c1-2-8-3-4-5(8)6(7-1)9-4/h4-5H,1-3H2/t4-,5+/m1/s1
