19
gdb 109601	1.92873	1.29991	0.98845	3.3875	77.33	-0.272	0.0213	0.2933	1284.2056	0.158285	-419.197625	-419.1874	-419.186456	-419.232833	36.8	
C	-0.0354620081	 1.5707941614	 0.1651412716	-0.424755
C	 0.0388803787	 0.0698974669	-0.0218750142	-0.053263
C	 0.6190507697	-0.5902332486	-1.24195852	-0.07775
C	 1.1958228943	 0.1816624681	-2.4095750422	-0.091745
O	 1.9556522155	-0.6502199127	-3.2743170969	-0.414474
C	 1.3717301537	-0.6732723997	 0.0953734467	 0.101474
N	 2.5653815338	 0.1225643107	 0.2491464061	-0.560497
C	 1.3546333031	-1.9474227523	 0.7828058329	 0.241085
N	 1.3812058554	-2.9602540355	 1.3435259445	-0.348437
H	 0.8718908147	 2.0734962298	-0.1712951388	 0.143693
H	-0.8839500469	 1.9804679338	-0.3927522086	 0.129621
H	-0.186990185	 1.8182392716	 1.2210607287	 0.124679
H	-0.7943913943	-0.4673966191	 0.4215699577	 0.112251
H	 0.1424244262	-1.516956722	-1.5479665054	 0.115926
H	 0.3746032238	 0.5667449775	-3.0237679156	 0.117447
H	 1.7822900871	 1.0368826944	-2.0564409203	 0.112806
H	 2.7369787455	-0.9404837632	-2.7935208919	 0.281671
H	 2.670922562	 0.4233958249	 1.2136145229	 0.247925
H	 3.3911120207	-0.4228620859	 0.0212371228	 0.242344
68.1412	99.886	154.4908	161.7265	175.7462	205.5522	265.9692	278.9117	297.0403	335.4178	425.7555	482.1543	537.2672	572.4104	587.7243	693.7031	783.5835	838.4075	855.1856	978.7752	993.3897	1029.1079	1054.5124	1073.1577	1099.1881	1140.4138	1163.5312	1202.1915	1246.3521	1262.1641	1308.5612	1351.1541	1392.6014	1413.5323	1416.0537	1441.4193	1493.4484	1499.9118	1505.6653	1664.975	2334.4293	3037.227	3042.2656	3081.3755	3096.9596	3137.6237	3152.7431	3162.8785	3494.7928	3567.9349	3821.6654
CC1C(CO)C1(N)C#N	C[C@H]1[C@@H](CO)[C@]1(N)C#N	
InChI=1S/C6H10N2O/c1-4-5(2-9)6(4,8)3-7/h4-5,9H,2,8H2,1H3	InChI=1S/C6H10N2O/c1-4-5(2-9)6(4,8)3-7/h4-5,9H,2,8H2,1H3/t4-,5+,6-/m0/s1
