20
gdb 58850	2.50299	1.45219	1.08109	3.5628	79.55	-0.2331	-0.0135	0.2196	1185.2759	0.169565	-403.129087	-403.119885	-403.118941	-403.163183	34.604	
C	-0.0889634319	 1.5777257266	 0.2664042313	-0.393609
C	 0.0196515358	 0.0599643978	 0.0342086222	-0.104784
C	 0.895694341	-0.617965474	 1.0962268759	-0.414467
C	-1.3569664257	-0.5430383404	-0.0779611431	 0.237549
N	-2.2473097244	-0.8440744618	 1.1017986311	-0.367914
C	-1.9461163221	-1.9162946992	 0.1420230475	-0.133672
C	-2.9763660669	-1.7525744663	-0.9830010677	-0.342503
C	-2.3230991641	-0.3624213183	-1.2345118319	 0.403118
O	-2.3922764852	 0.4344742027	-2.1257066559	-0.318362
H	 0.9037480108	 2.0387169907	 0.2745152937	 0.110307
H	-0.6816844262	 2.0459653187	-0.5234812949	 0.147121
H	-0.5710305923	 1.7921706205	 1.2264129207	 0.118957
H	 0.4987374984	-0.0921611012	-0.9428181874	 0.093513
H	 0.9610025821	-1.6997792961	 0.940838589	 0.117245
H	 1.9118295403	-0.2142768393	 1.0583483191	 0.124764
H	 0.5193752454	-0.4377025304	 2.1101135623	 0.117402
H	-1.6165555622	-0.9553431957	 1.8966829071	 0.234652
H	-1.4307897205	-2.8207406545	 0.4376194965	 0.109641
H	-2.8256402083	-2.4067109023	-1.8464397164	 0.128238
H	-4.0234790942	-1.7658302274	-0.6739592489	 0.132801
49.5922	117.6663	175.5864	188.7442	234.6275	257.6101	293.6739	368.6564	411.102	464.2274	546.0029	556.379	636.7496	678.144	793.982	857.2644	861.2238	912.1031	930.6378	947.4641	970.5349	993.735	1016.571	1035.4317	1097.9722	1107.1798	1139.8601	1163.9932	1186.3362	1214.4873	1272.4467	1304.8767	1340.5939	1361.0287	1399.1278	1416.186	1425.0954	1446.6833	1489.2145	1492.4862	1506.3433	1514.2766	1882.2307	3010.8529	3028.2753	3036.0358	3068.3609	3092.6526	3102.9728	3107.7926	3124.8312	3130.3601	3205.557	3464.6621
CC(C)C12NC1CC2=O	CC(C)[C@]12N[C@H]1CC2=O	
InChI=1S/C7H11NO/c1-4(2)7-5(8-7)3-6(7)9/h4-5,8H,3H2,1-2H3	InChI=1S/C7H11NO/c1-4(2)7-5(8-7)3-6(7)9/h4-5,8H,3H2,1-2H3/t5-,7-/m0/s1
