14
gdb 14634	9.56049	0.61716	0.58392	0.8066	90.12	-0.2327	-0.0076	0.2251	1839.5958	0.103928	-308.190269	-308.180959	-308.180015	-308.226737	31.228	
C	 0.0253748269	 1.5124576899	 0.0098698992	-0.518336
C	 0.0225837141	 0.0608284476	 0.0020981515	 0.255889
C	 0.0191379095	-1.1492747017	-0.0043698655	-0.199518
C	 0.0156683546	-2.5094234597	-0.0116436955	-0.212427
C	 0.0131269417	-3.7187235863	-0.0181159009	 0.317568
C	 0.0214756652	-5.1800997922	-0.0260462302	-0.527558
C	-1.3172635761	-5.7740000508	-0.0164356311	 0.318005
C	-2.4094171004	-6.2717578723	-0.0086673962	-0.439422
H	 1.0479715613	 1.9064452597	 0.002004142	 0.156567
H	-0.4931320219	 1.9144711959	-0.8679022378	 0.157076
H	-0.475856506	 1.9049635875	 0.9018645249	 0.157076
H	 0.5710661058	-5.5377777512	-0.9084556529	 0.166241
H	 0.5878019512	-5.5471800511	 0.8417994758	 0.166241
H	-3.3782437059	-6.7062884853	-0.0017378333	 0.202595
8.8966	56.9052	94.691	138.6377	241.206	274.5782	318.4024	367.8074	378.0991	460.4109	549.1879	556.6028	625.4101	646.5415	663.859	915.0398	930.2414	988.1141	1048.3105	1048.4532	1227.5748	1278.4431	1341.3776	1412.9283	1447.9006	1471.7992	1472.1666	2248.0997	2284.4815	2392.5597	3001.8915	3023.7197	3025.8373	3085.9526	3086.0532	3506.8662	8.9219	56.9059	94.6899	138.6369	241.2076	274.5788	318.4063	367.8062	378.1003	460.4107	549.1862	556.6037	625.412	646.5437	663.8587	915.0399	930.242	988.1142	1048.3101	1048.4528	1227.5749	1278.443	1341.3775	1412.928	1447.9005	1471.7985	1472.1659	2248.0999	2284.4817	2392.5598	3001.8914	3023.7197	3025.8372	3085.9526	3086.0532	3506.8665
CC#CC#CCC#C	CC#CC#CCC#C	
InChI=1S/C8H6/c1-3-5-7-8-6-4-2/h1H,5H2,2H3	InChI=1S/C8H6/c1-3-5-7-8-6-4-2/h1H,5H2,2H3
