19
gdb 90416	2.43395	1.6344	1.27803	3.7102	76.73	-0.2233	0.0043	0.2276	1062.6673	0.159675	-419.167497	-419.159019	-419.158075	-419.200462	32.569	
C	 0.3367007136	 1.5668736683	-0.191016972	-0.393647
C	 0.0991427267	 0.081892765	-0.0146912983	 0.063637
C	 0.8427418594	-0.9388335416	-0.9293922774	-0.281934
C	 1.1800229939	-1.7384942495	 0.348553306	-0.017595
C	 2.5989893586	-1.5646320538	 0.9614019439	-0.007095
O	 3.7097365229	-1.3384523851	 0.1338335252	-0.41886
C	 2.0232930021	-0.267704351	 1.5561044633	 0.340418
N	 2.4773403527	 0.7883912766	 2.0757827821	-0.523547
N	 0.6821251168	-0.5973259327	 1.2154484232	-0.146472
H	 1.4011618133	 1.8078563401	-0.2181557472	 0.136791
H	-0.1213835833	 1.89509479	-1.1306582805	 0.11236
H	-0.1144968961	 2.1340038182	 0.6282395871	 0.135338
H	-0.9768062801	-0.1208784181	-0.0020015628	 0.087393
H	 0.2408411993	-1.4515697589	-1.6821924379	 0.102518
H	 1.7368184804	-0.5227860379	-1.4028450884	 0.121997
H	 0.6862170007	-2.7044338475	 0.4776710695	 0.073731
H	 2.8054084546	-2.3273885936	 1.7253466506	 0.093322
H	 4.0888180044	-2.1877668505	-0.1133952368	 0.293772
H	 3.49231331	 0.7195571118	 2.1677668603	 0.227869
69.9139	170.2757	205.7078	224.0543	241.0971	292.3725	319.8532	407.7585	487.1593	544.7769	613.6616	640.6285	747.5145	784.2124	834.5773	845.3226	868.7211	895.8739	942.6667	966.0587	1011.4106	1020.5968	1093.4662	1125.6205	1133.7045	1163.9789	1182.3152	1204.347	1209.5542	1252.1811	1278.4367	1286.4914	1327.1145	1340.4794	1386.4219	1416.0322	1424.3747	1484.3431	1485.4701	1493.3608	1775.9019	3004.1734	3040.0978	3045.9321	3062.2755	3079.1978	3109.773	3122.5668	3137.7013	3469.5943	3820.1193
CC1CC2C(O)C(=N)N12	C[C@H]1C[C@H]2[C@@H](O)[C]([NH])N12	
InChI=1S/C6H10N2O/c1-3-2-4-5(9)6(7)8(3)4/h3-5,7,9H,2H2,1H3	InChI=1S/C6H10N2O/c1-3-2-4-5(9)6(7)8(3)4/h3-5,7,9H,2H2,1H3/t3-,4-,5+/m0/s1
