17
gdb 29755	3.10447	1.51649	1.10956	3.6279	75.2	-0.2244	0.0211	0.2456	1080.6486	0.137407	-418.009279	-418.001317	-418.000373	-418.041942	29.9	
C	-0.4196166913	 1.6206304301	-0.2732699203	-0.392139
C	 0.0120203737	 0.1924306902	-0.0124298548	-0.000361
C	 0.8037336206	-0.562161172	-1.1887935967	-0.018914
O	 0.9860107052	 0.1135033756	-2.4004731977	-0.412325
C	 1.9402624542	-0.6316988931	-0.1806671421	 0.300985
N	 3.0966997045	-1.1127302711	 0.2176968999	-0.366075
C	 3.1350016164	-0.7310863373	 1.5467249356	-0.091033
C	 1.9910418142	-0.0526815789	 1.9398638714	-0.178054
N	 1.255095319	 0.0194208875	 0.785916058	 0.017904
H	 0.4062504046	 2.219518822	-0.666548855	 0.117932
H	-1.2286622714	 1.6307787417	-1.0094642524	 0.139881
H	-0.782239067	 2.0954550521	 0.6433358792	 0.128004
H	-0.8102938697	-0.405960016	 0.3928512395	 0.104113
H	 0.3484264394	-1.5247809373	-1.437020289	 0.11637
H	 1.6660727859	 0.783807872	-2.2747903121	 0.292127
H	 3.9950638896	-0.9563052086	 2.1605428998	 0.109212
H	 1.696148192	 0.3812204032	 2.8800100867	 0.132374
84.7732	123.8176	189.7289	232.8569	262.3814	335.9048	402.8112	486.7056	576.1397	629.1995	693.4869	719.0348	733.1817	783.7425	828.8182	845.9123	953.0481	991.1793	1031.5302	1074.7874	1099.8147	1128.5732	1146.7954	1158.3436	1209.7233	1233.4342	1274.1021	1289.9341	1360.5662	1390.3434	1407.7792	1412.94	1443.5072	1472.5186	1481.561	1494.2857	1563.209	3044.8134	3058.8094	3082.7251	3117.3152	3124.487	3241.7311	3283.9024	3814.5591
CC1C(O)C2=NC=CN12	C[C@H]1[C@@H](O)c2nccn12	
InChI=1S/C6H8N2O/c1-4-5(9)6-7-2-3-8(4)6/h2-5,9H,1H3	InChI=1S/C6H8N2O/c1-4-5(9)6-7-2-3-8(4)6/h2-5,9H,1H3/t4-,5+/m0/s1
