21
gdb 109716	3.24723	1.06479	1.00111	2.2124	79.62	-0.2431	0.0582	0.3013	1295.1019	0.182342	-424.188775	-424.179581	-424.178637	-424.222701	35.078	
O	-0.0743586453	 1.0467573595	-1.0667858983	-0.423722
C	-0.1048114597	 0.2520154495	 0.1315919248	-0.123489
C	-1.4514863013	-0.4215015864	 0.2013114532	-0.155271
C	-1.8260739566	-1.3276849312	-0.953881884	 0.049823
O	-0.8885434814	-1.5323904516	-1.9678105803	-0.432236
C	-1.5504645682	-1.9184759474	 0.3959954944	 0.32194
C	-0.4441224968	-2.9446241878	 0.6664180369	-0.284585
C	-1.5478225596	-3.9085173573	 1.1993967417	-0.208494
C	-2.5525333629	-2.7180012771	 1.2350548761	-0.30163
H	 0.7932458797	 1.459160734	-1.1311953875	 0.28971
H	 0.6963985051	-0.4975048127	 0.1062514741	 0.105209
H	 0.057237282	 0.8866756682	 1.0140819791	 0.096988
H	-2.2528738416	 0.1827098176	 0.6185361079	 0.084917
H	-2.8636282677	-1.3069197551	-1.2910081079	 0.07967
H	-0.5401054391	-0.6575252568	-2.1911708739	 0.292987
H	 0.1235150426	-3.2690338725	-0.208089644	 0.116627
H	 0.255764928	-2.634739509	 1.4497326469	 0.092259
H	-1.826250715	-4.6637169693	 0.4607937375	 0.108647
H	-1.3466100251	-4.4081899823	 2.1493070448	 0.095634
H	-2.6834865936	-2.3089464339	 2.2424425571	 0.097047
H	-3.5412355635	-2.8847267982	 0.7973544614	 0.09797
86.1104	99.8484	160.4644	175.5036	230.9256	256.7631	321.5429	370.0109	400.3488	477.7117	549.0631	588.9989	670.0726	713.7056	791.4729	814.8929	850.662	878.1007	934.4983	950.9737	965.1848	1004.3233	1021.9176	1048.7899	1089.189	1117.8511	1141.3614	1159.3518	1184.0678	1212.6644	1221.4466	1247.4369	1252.5008	1261.5356	1275.7566	1280.5195	1322.965	1351.7283	1389.7379	1451.735	1459.6487	1477.5352	1482.6521	1506.0475	1514.4474	2999.4706	3038.5289	3040.0512	3045.5231	3067.6385	3084.3434	3086.4685	3106.7871	3124.4974	3139.98	3728.001	3815.4343
OCC1C(O)C11CCC1	OC[C@H]1[C@@H](O)C21CCC2	
InChI=1S/C7H12O2/c8-4-5-6(9)7(5)2-1-3-7/h5-6,8-9H,1-4H2	InChI=1S/C7H12O2/c8-4-5-6(9)7(5)2-1-3-7/h5-6,8-9H,1-4H2/t5-,6+/m0/s1
