21
gdb 120771	4.0136	0.72271	0.66286	2.6126	81.18	-0.2525	0.0844	0.3369	1763.2339	0.180518	-424.17503	-424.165194	-424.16425	-424.211139	35.	
C	-0.3773544165	 1.3645780811	-0.0047872242	-0.224559
O	-0.2173409125	-0.0313249061	-0.0760432019	-0.233229
C	 0.81329583	-0.4201928655	-0.9574934668	-0.083489
C	 0.8887564641	-1.9238161553	-0.9501039067	 0.033933
O	 0.1109876476	-2.6368940866	-1.9180385563	-0.262914
C	 1.5384193606	-2.7150923747	-2.0067692686	 0.058724
C	 2.1990174992	-2.1472490906	-3.2176739545	-0.008234
C	 3.670733516	-2.4149942585	-3.4394644199	-0.269221
C	 2.646766517	-3.0839707542	-4.3155094831	-0.267676
H	 0.5391263787	 1.8643916355	 0.3489051339	 0.101518
H	-0.6464861023	 1.7967107924	-0.9817375212	 0.105363
H	-1.1846349752	 1.5650574795	 0.7035889825	 0.129481
H	 0.6149694565	-0.0539331759	-1.97599101	 0.096224
H	 1.7799206158	 0.0035296474	-0.6296435947	 0.088352
H	 0.8477439057	-2.3471028382	 0.0550518007	 0.0956
H	 1.9426610654	-3.6862244213	-1.7069039738	 0.083596
H	 1.8271201041	-1.1797243326	-3.5356539669	 0.088985
H	 4.2747073986	-1.6181863136	-3.8582292669	 0.116377
H	 4.1895959953	-3.0253142879	-2.707328831	 0.115143
H	 2.4704377675	-4.1449868558	-4.1726073766	 0.118744
H	 2.5432852947	-2.7498080393	-5.3414370741	 0.117282
44.5498	75.0971	86.8029	104.2168	190.2998	232.3008	261.3046	290.3766	353.9624	442.2193	493.6164	567.4167	757.9556	814.3184	825.9778	827.4882	910.3252	924.4474	956.9254	989.944	1000.7641	1061.1963	1075.0832	1083.9257	1111.876	1122.8602	1154.6113	1172.6145	1187.2718	1197.4454	1212.5879	1223.2126	1229.2909	1268.4051	1299.7172	1329.868	1376.2684	1437.1563	1468.7128	1476.187	1485.1996	1493.4537	1496.9224	1514.3312	1523.6787	2942.9445	2967.3422	3005.2459	3010.6652	3063.8664	3101.1867	3115.9393	3132.112	3136.7822	3171.8461	3211.1897	3226.7898
COCC1OC1C1CC1	COC[C@H]1O[C@H]1C1CC1	
InChI=1S/C7H12O2/c1-8-4-6-7(9-6)5-2-3-5/h5-7H,2-4H2,1H3	InChI=1S/C7H12O2/c1-8-4-6-7(9-6)5-2-3-5/h5-7H,2-4H2,1H3/t6-,7+/m1/s1
