21
gdb 13462	3.52717	1.20013	1.08613	2.2473	76.29	-0.2142	0.0768	0.2909	1215.1661	0.186532	-366.215538	-366.205676	-366.204732	-366.250487	34.643	
C	 1.3410284632	 1.3572475421	 1.270747437	-0.224297
O	 1.0207658963	 0.002050573	 1.0730325184	-0.232013
C	 1.5880662409	-0.8441047345	 2.0554372068	-0.082517
C	 1.2351268343	-2.2665382893	 1.7016715814	-0.022983
C	 1.0726792558	-3.3433976911	 2.7311580064	-0.007744
C	 1.2579532965	-3.129988832	 4.2201920666	-0.417189
N	-0.0775758064	-2.8556551942	 1.9689440768	-0.096178
C	-1.123299129	-2.0658075675	 2.6013732879	-0.311524
H	 2.4286902653	 1.5309487524	 1.2351339961	 0.10219
H	 0.8666422708	 1.9268572156	 0.4678958027	 0.127849
H	 0.9689222948	 1.730977724	 2.2386141164	 0.101106
H	 2.6869261391	-0.7340220223	 2.0656654022	 0.0881
H	 1.2304703188	-0.554904695	 3.0543064095	 0.082908
H	 1.6366603805	-2.5488554057	 0.7282889686	 0.090427
H	 1.3733910891	-4.3451673922	 2.4216688544	 0.087055
H	 0.9971801416	-2.1258268171	 4.5577248058	 0.120848
H	 0.6439509579	-3.8403786575	 4.784896581	 0.124381
H	 2.3028182232	-3.3110268832	 4.4946433321	 0.123041
H	-0.8081838843	-1.4344469891	 3.4442458381	 0.094325
H	-1.5657666715	-1.4125254583	 1.8441350313	 0.134733
H	-1.9007296669	-2.744417388	 2.9674059605	 0.117482
60.5802	93.9278	114.9702	153.8392	168.1128	223.6568	246.6741	274.2747	298.7141	386.7575	462.6265	534.5952	553.8644	736.3885	769.021	858.388	961.9599	1004.9361	1030.414	1053.676	1090.9175	1132.5368	1151.2327	1159.2696	1174.1907	1178.2775	1188.9384	1204.805	1226.9208	1269.3513	1352.9045	1366.9401	1405.9936	1415.4297	1446.9516	1462.5388	1480.332	1484.6796	1485.4531	1491.7611	1500.9382	1507.9665	1510.6047	1526.7294	2950.0542	2966.3307	2992.8764	3006.6669	3010.7184	3038.4079	3068.2746	3085.8279	3091.5411	3103.2431	3109.9516	3113.512	3137.6876
COCC1C(C)N1C	COC[C@H]1[C@@H](C)N1C	
InChI=1S/C6H13NO/c1-5-6(4-8-3)7(5)2/h5-6H,4H2,1-3H3	InChI=1S/C6H13NO/c1-5-6(4-8-3)7(5)2/h5-6H,4H2,1-3H3/t5-,6+,7?/m1/s1
