20
gdb 81620	3.29946	0.99914	0.89611	3.7597	80.67	-0.2323	-0.0185	0.2137	1366.6812	0.170189	-403.072596	-403.063797	-403.062852	-403.107217	32.637	
C	 0.0042714408	 1.7705019755	 0.0128608051	-0.445444
C	 0.0314033606	 0.2539081621	-0.0384769041	 0.09627
C	 0.7892130685	-0.5667086879	-1.1180588474	-0.10833
C	 2.0641363522	-0.1513039068	-0.3529859996	-0.177366
N	 1.1030019452	-0.4988230822	 0.7999730065	-0.167605
C	 0.7552802919	-1.7227047695	-0.0857367908	 0.077128
C	-0.4826638328	-2.5429134054	 0.2582550647	-0.355659
C	-0.3834685667	-3.1401296602	 1.6505936926	 0.185749
O	-1.2972203972	-3.2016850823	 2.4301826384	-0.240684
H	 0.9300539143	 2.2536068813	-0.3050799702	 0.121583
H	-0.8007045851	 2.1405074198	-0.6312519401	 0.122539
H	-0.2136529472	 2.0980629359	 1.0347558398	 0.137059
H	-0.9703656533	-0.1061037619	 0.20222995	 0.075802
H	 0.6165664007	-0.6104622003	-2.2001031158	 0.063205
H	 2.9305846723	-0.8161133452	-0.4074426066	 0.100805
H	 2.380074773	 0.8902013905	-0.3723901461	 0.105809
H	 1.6171000881	-2.3982084947	-0.1380442473	 0.07587
H	-1.4318819889	-2.0107798787	 0.1829401149	 0.129406
H	-0.5264448802	-3.3848809608	-0.4488883153	 0.127178
H	 0.6211016538	-3.5471538792	 1.9083937511	 0.076684
35.4345	78.1263	142.9078	162.8648	266.0911	279.1039	379.5086	407.4185	459.0366	586.8015	630.2125	723.3854	748.5485	774.827	794.8808	832.7301	889.1308	908.8563	1018.1819	1030.6035	1045.1558	1055.756	1067.2333	1092.392	1145.0877	1154.5438	1159.9536	1172.2007	1189.6321	1223.2841	1234.4026	1245.1312	1270.8771	1301.9218	1407.8226	1426.7353	1431.1449	1441.4992	1467.6844	1494.7628	1495.8132	1545.8522	1838.2127	2869.4525	3012.4064	3027.5001	3036.4091	3041.3683	3069.1304	3087.4753	3101.4364	3122.4235	3129.5243	3151.2975
CC1C2CN1C2CC=O	C[C@H]1[C@H]2CN1[C@H]2CC=O	
InChI=1S/C7H11NO/c1-5-6-4-8(5)7(6)2-3-9/h3,5-7H,2,4H2,1H3	InChI=1S/C7H11NO/c1-5-6-4-8(5)7(6)2-3-9/h3,5-7H,2,4H2,1H3/t5-,6+,7-/m0/s1
