20
gdb 68388	2.59412	1.93142	1.44637	1.3528	77.37	-0.2339	0.0728	0.3068	976.9773	0.173316	-403.120929	-403.113619	-403.112674	-403.152042	30.665	
C	-0.0545246494	 1.508353808	 0.0352113243	-0.49292
C	 0.0653968581	 0.0060465846	-0.0515184797	 0.434683
C	 0.5148672274	-0.6720702804	-1.3643096038	-0.2964
C	-0.5697202133	-1.6905460933	-0.9661544562	 0.089951
C	-0.0414907006	-2.7758809222	-0.01241864	-0.224302
C	 0.6804378279	-2.1263594807	 1.1630026204	-0.015765
N	 1.9636571172	-1.4439405323	 0.8916252874	-0.340922
C	 0.7506828941	-0.642979353	 1.1548302284	-0.082622
O	-1.2397361555	-0.6623847215	-0.1817917607	-0.333552
H	 0.9402087291	 1.9665956165	 0.0594754361	 0.123476
H	-0.6026605775	 1.9013998011	-0.824897714	 0.122373
H	-0.587741486	 1.8018707437	 0.9461828227	 0.123011
H	 0.2132124963	-0.0805238024	-2.2309298423	 0.096074
H	 1.5479350127	-1.003845281	-1.4454862302	 0.125288
H	-1.2208667171	-2.102713273	-1.7416984009	 0.06987
H	-0.895330731	-3.3445498218	 0.3721485375	 0.105271
H	 0.6115467927	-3.4763368248	-0.5464402346	 0.104098
H	 0.5831270137	-2.6278197569	 2.1220214466	 0.085567
H	 2.546571494	-1.4689904296	 1.7245599704	 0.229406
H	 0.6805240371	-0.102746561	 2.0956315583	 0.077415
197.5559	213.5569	265.8596	298.1291	354.8239	416.6522	458.5787	492.9022	523.3365	641.8455	692.2985	780.1915	829.765	848.7656	854.2292	880.7741	896.9642	920.0856	940.7234	962.5515	1007.4072	1018.5082	1034.5114	1097.2278	1101.136	1129.9763	1146.6884	1193.4587	1200.7745	1234.7122	1256.4052	1258.1041	1284.0232	1318.0371	1323.7722	1365.7706	1401.2981	1407.7804	1446.0389	1466.7687	1478.9424	1484.9166	1494.4767	3032.2611	3033.8146	3069.7265	3078.7073	3085.1278	3099.8941	3118.8433	3133.3965	3144.1859	3162.4075	3498.2431
CC12CC(CC3NC13)O2	C[C@@]12C[C@@H](C[C@H]3N[C@@H]13)O2	
InChI=1S/C7H11NO/c1-7-3-4(9-7)2-5-6(7)8-5/h4-6,8H,2-3H2,1H3	InChI=1S/C7H11NO/c1-7-3-4(9-7)2-5-6(7)8-5/h4-6,8H,2-3H2,1H3/t4-,5-,6-,7-/m1/s1
