12
gdb 21613	3.9633	2.05385	1.353	5.7845	62.57	-0.2367	-0.0728	0.1639	826.8919	0.084448	-410.824178	-410.817233	-410.816289	-410.855574	25.325	
N	 0.018451937	 1.3388110013	 0.069986044	-0.560436
C	-0.0360633499	-0.0118313191	 0.021839843	 0.395725
N	-1.1796397157	-0.6174967594	 0.0155219017	-0.34686
C	-1.1894619423	-1.9893591434	-0.0029399607	 0.447184
N	-2.2475346356	-2.67961559	 0.0005861987	-0.521278
O	 0.0573437513	-2.6860788828	-0.0335147535	-0.27573
N	 1.2578436627	-2.0316613733	-0.0290382776	-0.027125
C	 1.2221678245	-0.7509664603	 0.0001801643	-0.027991
H	 0.8810974249	 1.8329548022	-0.0700627666	 0.273205
H	-0.8481704281	 1.8479590774	 0.0021838745	 0.279972
H	-2.0222294513	-3.67362597	-0.017837979	 0.228843
H	 2.1876357126	-0.2545287025	 0.0074429712	 0.134491
78.3071	164.101	195.8371	341.5319	382.2957	494.7942	528.9459	552.7208	590.8712	714.3102	724.5921	754.6678	836.6842	840.378	878.2836	969.7207	993.707	1014.9033	1184.465	1274.1521	1339.8799	1452.4026	1615.5817	1638.0674	1704.449	1760.0404	3180.3086	3507.9731	3608.8464	3745.5014
NC1=NC(=N)ON=C1	N[C]1N=C([NH])ON=C1	
InChI=1S/C3H4N4O/c4-2-1-6-8-3(5)7-2/h1H,(H3,4,5,7)	InChI=1S/C3H4N4O/c4-2-1-6-8-3(5)7-2/h1H,(H3,4,5,7)
