25
gdb 101322	3.01555	0.76273	0.71069	1.3035	89.95	-0.2572	0.078	0.3352	1752.5716	0.227038	-389.479423	-389.468178	-389.467234	-389.516329	40.917	
C	 2.3689686937	 2.0334098561	 2.410102632	-0.393503
C	 1.626908523	 0.7024536598	 2.2533452406	-0.161896
C	 2.4939262229	-0.4667774718	 1.7434152	 0.020128
C	 3.605652194	-0.8455484823	 2.7347956715	-0.396514
C	 1.6117545759	-1.6695565638	 1.4422746146	 0.00242
C	 0.8507336109	-1.7920733754	 0.1459157436	-0.300957
C	 1.9651461993	-2.7629661542	 0.4559211695	-0.003347
C	 3.2273864742	-2.7599341099	-0.3651385996	-0.101893
O	 2.9730245536	-3.4954127051	-1.5573197645	-0.421241
H	 2.835089095	 2.3395286297	 1.4663584662	 0.111287
H	 1.6813786238	 2.8300439424	 2.711573824	 0.111436
H	 3.1577307825	 1.9801323432	 3.1667938801	 0.116885
H	 1.1762997784	 0.4170249036	 3.2142983259	 0.089408
H	 0.7915663474	 0.8384324197	 1.5559350418	 0.097735
H	 2.9668140048	-0.136429579	 0.8084329114	 0.064934
H	 3.1776126886	-1.1657371321	 3.6925945351	 0.110823
H	 4.209729134	-1.6734509101	 2.3511619811	 0.114097
H	 4.2789443547	-0.0070713125	 2.9354425239	 0.111792
H	 1.0828868208	-2.0274606156	 2.3246513366	 0.07658
H	-0.1734137267	-2.1479532343	 0.1595971183	 0.108032
H	 1.0500797828	-1.0481356744	-0.6201866534	 0.108757
H	 1.6553639156	-3.7658291878	 0.7378275722	 0.086085
H	 3.5317474698	-1.7285398995	-0.5987342005	 0.082892
H	 4.0492404068	-3.2202099767	 0.2074839041	 0.08341
H	 3.7991438241	-3.5629668498	-2.0454379143	 0.282648
54.1448	77.1742	88.5613	112.3999	179.845	207.4301	229.4215	255.5531	270.0631	290.6941	336.4533	394.929	434.2407	482.216	578.7726	764.8745	790.8247	817.6274	851.5325	879.6244	914.1263	958.9442	979.2279	984.2502	1030.7406	1050.1674	1051.6815	1065.1282	1073.6936	1139.0879	1151.0811	1173.7697	1181.6198	1202.301	1238.3794	1260.2005	1280.0836	1283.0742	1303.4848	1349.9473	1373.7048	1388.9523	1406.8645	1413.5208	1426.4149	1470.1513	1483.5733	1493.5455	1494.7442	1501.1262	1504.8473	1508.9668	1519.0955	2962.8974	2993.0288	3007.5935	3016.5966	3028.6403	3031.3102	3052.8842	3093.9261	3095.2028	3102.1467	3110.0795	3110.6579	3124.5717	3142.9249	3209.0362	3823.7367
CCC(C)C1CC1CO	CC[C@@H](C)[C@H]1C[C@H]1CO	
InChI=1S/C8H16O/c1-3-6(2)8-4-7(8)5-9/h6-9H,3-5H2,1-2H3	InChI=1S/C8H16O/c1-3-6(2)8-4-7(8)5-9/h6-9H,3-5H2,1-2H3/t6-,7+,8-/m1/s1
