19
gdb 106991	2.95662	1.27792	1.03347	2.6083	76.29	-0.236	-0.0243	0.2117	1228.7198	0.15684	-423.015273	-423.005944	-423.005	-423.049625	33.955	
C	 0.1463936124	 1.5429257776	-0.1380623649	-0.385912
C	-0.0855327403	 0.0289590525	-0.0218462455	-0.319687
C	 0.4776692941	-0.5275754483	 1.2454049721	 0.308352
O	 1.9189416795	-0.6940523156	 1.3658834526	-0.282365
C	 1.0924217624	-1.8245771713	 1.6338313435	-0.072668
C	 0.6720006709	-1.7121010515	 3.1113061186	-0.136403
C	 1.7497028855	-1.7362621394	 4.1861904322	-0.411161
C	 0.0302338917	-0.3460936685	 2.6986549163	 0.375416
O	-0.6577081783	 0.4495856535	 3.2675612484	-0.308239
H	 1.216191325	 1.7707157452	-0.135750876	 0.133914
H	-0.2840953403	 1.9299936176	-1.065753957	 0.115746
H	-0.3158506594	 2.0699945877	 0.7013251717	 0.14395
H	-1.1604036063	-0.187752792	-0.0480485417	 0.114927
H	 0.3706604313	-0.4959662054	-0.8685454801	 0.114954
H	 1.2271668947	-2.7091919153	 1.0222754825	 0.114294
H	-0.1505481736	-2.3986241794	 3.3517877171	 0.102418
H	 2.5967085633	-1.11387607	 3.8874468571	 0.138853
H	 1.3530688696	-1.3484096401	 5.1292723739	 0.134676
H	 2.1105452476	-2.7542907673	 4.3647348592	 0.118937
63.7537	97.5751	160.209	181.2558	205.8858	224.8483	249.9721	309.8454	381.2281	489.8795	564.483	634.3712	679.4164	733.5382	762.8549	819.8531	852.7536	908.3066	913.8037	973.8347	1004.0849	1043.1817	1068.3878	1081.5692	1104.4261	1139.6278	1198.3001	1229.8914	1247.7651	1311.2706	1340.9139	1344.717	1401.4849	1409.2502	1446.0877	1471.4762	1493.3811	1499.0153	1502.9653	1511.545	1889.6191	3033.1919	3034.3048	3041.1866	3045.8792	3073.4971	3106.8622	3119.4299	3124.6074	3128.0579	3191.1594
CCC12OC1C(C)C2=O	CC[C@]12O[C@H]1[C@@H](C)C2=O	
InChI=1S/C7H10O2/c1-3-7-5(8)4(2)6(7)9-7/h4,6H,3H2,1-2H3	InChI=1S/C7H10O2/c1-3-7-5(8)4(2)6(7)9-7/h4,6H,3H2,1-2H3/t4-,6-,7+/m0/s1
