20
gdb 82059	2.80487	1.45182	1.26544	2.5425	78.38	-0.2365	0.0739	0.3104	1086.2456	0.172096	-403.088539	-403.080526	-403.079582	-403.121155	31.807	
O	 0.4399000914	 1.3510768776	 0.1830913516	-0.437168
C	 0.2030514238	-0.0263490795	 0.1032954419	 0.054455
C	 0.2318822257	-0.8105992473	 1.4225188183	-0.078483
N	-0.8467300157	-0.1838237668	 2.2314293823	-0.364027
C	-1.1812420353	-1.2352067089	 1.2344975141	-0.1422
C	-1.2845977509	-0.5133040522	-0.1090743733	 0.372099
C	-2.4549788379	 0.4535726176	-0.3948418933	-0.285265
C	-3.0374654262	-0.5837561182	-1.3954245475	-0.209517
C	-1.6785811349	-1.3383507767	-1.3623306717	-0.306872
H	-0.0390066741	 1.64473082	 0.9707345144	 0.291638
H	 0.8705724014	-0.433219603	-0.6615499327	 0.082901
H	 1.0648226137	-1.309301869	 1.9034275862	 0.092578
H	-0.8298316731	-0.6187261424	 3.1525986313	 0.232375
H	-1.6711977721	-2.1521046305	 1.5413193717	 0.092151
H	-3.072189764	 0.7387885023	 0.460382155	 0.101046
H	-2.0975724171	 1.363635503	-0.8859208013	 0.1104
H	-3.8489452746	-1.1727063354	-0.9594023495	 0.099224
H	-3.3707860695	-0.2086569194	-2.3657570632	 0.097965
H	-1.0440613699	-1.0973438992	-2.2211008163	 0.102793
H	-1.7088122405	-2.426502652	-1.252875208	 0.093906
80.378	121.9297	191.4323	249.9643	269.9911	387.8521	463.4546	510.4634	575.1197	626.1184	692.8759	745.1041	795.0654	823.3979	841.2273	866.5285	880.3589	915.8103	939.5186	953.0822	962.9378	1007.2066	1045.8576	1063.1224	1097.741	1121.7213	1130.4838	1168.0772	1180.2773	1201.8934	1210.3595	1248.0634	1251.0039	1266.9318	1278.8489	1295.513	1317.2741	1336.1726	1376.212	1440.8043	1474.7857	1483.1095	1504.9593	3043.1741	3056.0123	3061.0483	3076.2852	3088.6756	3103.8381	3118.6768	3175.5247	3189.8201	3484.998	3750.2609
OC1C2NC2C11CCC1	O[C@H]1[C@H]2N[C@H]2C21CCC2	
InChI=1S/C7H11NO/c9-6-4-5(8-4)7(6)2-1-3-7/h4-6,8-9H,1-3H2	InChI=1S/C7H11NO/c9-6-4-5(8-4)7(6)2-1-3-7/h4-6,8-9H,1-3H2/t4-,5+,6-/m0/s1
