21
gdb 111435	2.76101	1.55876	1.22188	1.153	81.07	-0.2397	0.0721	0.3118	1101.9141	0.183938	-387.055727	-387.047689	-387.046744	-387.088187	32.053	
C	 0.1742632364	 1.2200962388	 0.2325124236	-0.231712
O	-0.1324707866	-0.1119698637	-0.1054619875	-0.23745
C	 0.5814741122	-0.5874288202	-1.2367794158	 0.089449
C	 2.1010085061	-0.7300078311	-1.0224988235	-0.058113
C	 2.5786995407	-1.5301609303	 0.1648602981	-0.295462
C	 2.4631016391	-2.1904637092	-1.1857117678	-0.045507
C	 1.2046908423	-2.9556693904	-1.5628645348	-0.040441
C	 0.062585993	-3.0621944738	-0.5838838785	-0.290997
C	 0.0566109725	-1.9718389519	-1.6254395565	-0.06235
H	 1.2297130285	 1.3437588229	 0.5160928463	 0.108679
H	-0.0414153773	 1.9111887337	-0.5989492396	 0.097466
H	-0.4534388045	 1.4917838917	 1.0851173952	 0.122389
H	 0.4157245616	 0.1072116489	-2.0766753914	 0.060576
H	 2.7442237546	 0.0541295872	-1.4064259966	 0.079732
H	 3.5797442221	-1.3202133862	 0.5273555819	 0.105277
H	 1.8720913657	-1.7700192078	 0.9496013623	 0.124579
H	 3.3798367576	-2.4810657819	-1.6863256274	 0.081319
H	 1.3126536623	-3.7351649604	-2.3084572982	 0.08045
H	-0.6391288788	-3.8763412458	-0.7331918469	 0.105556
H	 0.2058985156	-2.7987393925	 0.4561460965	 0.12488
H	-0.6927202931	-2.016830048	-2.4074605196	 0.081683
98.4026	139.391	173.869	231.05	296.4968	351.0318	433.2316	502.4693	550.3336	664.5698	698.407	720.4137	789.2773	829.3435	835.5296	848.5541	932.2096	966.5431	983.8164	1000.2044	1011.0426	1034.3854	1046.0484	1049.7773	1069.6449	1107.9559	1112.2073	1112.6548	1117.5253	1149.4337	1182.101	1197.333	1216.5956	1227.32	1307.532	1321.5748	1360.2804	1370.0268	1386.9847	1393.9108	1476.8601	1480.6152	1486.2777	1506.5962	1510.322	2961.2795	2969.8497	3022.3456	3108.9898	3135.4656	3140.8346	3158.4491	3164.1957	3168.6884	3179.166	3220.8769	3229.1787
COC1C2CC2C2CC12	CO[C@H]1[C@H]2C[C@H]2[C@H]2C[C@@H]12	
InChI=1S/C8H12O/c1-9-8-6-2-4(6)5-3-7(5)8/h4-8H,2-3H2,1H3	InChI=1S/C8H12O/c1-9-8-6-2-4(6)5-3-7(5)8/h4-8H,2-3H2,1H3/t4-,5+,6-,7+,8-
