13
gdb 48058	2.13849	1.37029	1.02147	0.5365	71.21	-0.2565	-0.1068	0.1497	1163.4197	0.083746	-419.357399	-419.347933	-419.346989	-419.392499	32.65	
O	-0.7637782008	 1.3625749244	 0.1715395299	-0.210935
C	 0.3401220005	 0.9675805438	 0.433459838	 0.093002
C	 1.6077449908	 1.8073910161	 0.21512103	 0.300434
O	 2.6829742633	 1.277454594	 0.2669293905	-0.250075
C	 1.3620327795	 3.3108200036	-0.0786026742	-0.468709
C	 1.0189248913	 3.9353070298	 1.2031934129	 0.328385
C	 0.7429502713	 4.3992970455	 2.2756967293	-0.441274
C	 2.499396655	 3.9392268441	-0.7403942632	 0.336679
C	 3.4316232405	 4.445015079	-1.300712406	-0.397539
H	 0.5599222867	-0.0537268315	 0.8057269863	 0.122459
H	 0.4730873761	 3.3527472257	-0.7236038519	 0.169149
H	 0.4959390779	 4.8310560416	 3.2144164956	 0.21259
H	 4.2580073179	 4.8966375639	-1.7919751873	 0.205833
42.866	110.2167	126.5104	129.4441	142.9377	225.4762	328.6604	382.0679	384.5362	529.3853	549.4472	583.4668	619.7972	634.9155	644.562	661.7302	668.5912	817.4254	946.7022	1001.1258	1059.778	1134.0484	1255.4305	1304.9443	1363.2034	1821.5946	1832.7762	2238.9648	2253.8629	2940.6367	3020.5755	3500.8699	3503.5131
O=CC(=O)C(C#C)C#C	O=CC(=O)C(C#C)C#C	
InChI=1S/C7H4O2/c1-3-6(4-2)7(9)5-8/h1-2,5-6H	InChI=1S/C7H4O2/c1-3-6(4-2)7(9)5-8/h1-2,5-6H
