21
gdb 101196	3.74401	1.02928	0.95625	2.4526	78.47	-0.2419	0.0648	0.3067	1332.353	0.18244	-424.177439	-424.168557	-424.167612	-424.211241	34.068	
C	-0.2226626221	 1.4831560158	-0.0773159822	-0.384707
C	-0.0888343033	-0.0312566834	 0.0907751352	-0.1703
C	 0.8659851184	-0.4193196137	 1.2348229409	 0.089733
O	 0.455940198	 0.1681766607	 2.4619532815	-0.439329
C	 1.0228414722	-1.936586725	 1.301912295	-0.034671
C	 1.6229803184	-2.7899077393	 2.4079741788	-0.169818
C	 1.1413660666	-2.3499978987	 3.7867361327	-0.098082
O	-0.2515603801	-2.3411093074	 3.3386014688	-0.30478
C	 0.1486443338	-2.8830041173	 2.0633125816	 0.063071
H	 0.7367000165	 1.935419045	-0.3536676697	 0.109514
H	-0.9469060019	 1.7334248038	-0.8583563848	 0.10554
H	-0.5487827277	 1.9415300428	 0.8593786358	 0.133746
H	-1.0719231622	-0.4767587746	 0.2951925273	 0.093083
H	 0.2693567338	-0.4846820214	-0.8429519165	 0.085865
H	 1.8530814805	 0.0162763501	 1.0210308944	 0.080545
H	-0.2159921178	-0.4155316513	 2.8420825447	 0.29137
H	 1.2866706586	-2.356698449	 0.331402921	 0.096165
H	 2.4252127425	-3.4923709499	 2.2254689037	 0.100411
H	 1.2739239303	-3.1243255471	 4.5495875176	 0.112573
H	 1.4594270195	-1.3756274115	 4.1621887439	 0.132317
H	-0.4697661339	-3.6719318485	 1.6497754102	 0.107755
62.2374	103.1515	162.4788	216.8836	241.3828	285.8835	327.2863	396.6308	426.5665	509.2912	579.1351	730.6581	748.4131	781.3951	801.3435	804.3682	858.8954	908.9242	949.3203	976.2655	990.2701	1009.4	1015.8259	1056.22	1066.4334	1075.3459	1107.8376	1123.7829	1135.0799	1177.385	1189.0036	1262.9851	1277.8579	1301.0919	1324.6846	1349.4507	1357.5802	1383.9022	1404.0485	1441.1778	1461.8047	1483.1656	1494.8082	1507.8684	1510.1637	2997.4354	3012.802	3035.0835	3046.6553	3050.1407	3099.2227	3117.8492	3120.5614	3126.8023	3173.8319	3201.7346	3722.1023
CCC(O)C1C2COC12	CC[C@@H](O)[C@H]1[C@H]2CO[C@@H]12	
InChI=1S/C7H12O2/c1-2-5(8)6-4-3-9-7(4)6/h4-8H,2-3H2,1H3	InChI=1S/C7H12O2/c1-2-5(8)6-4-3-9-7(4)6/h4-8H,2-3H2,1H3/t4-,5-,6-,7-/m1/s1
