19
gdb 41926	2.24004	2.16161	1.88568	1.4582	73.18	-0.2311	0.0735	0.3047	879.8068	0.16325	-423.014469	-423.007698	-423.006754	-423.045533	27.668	
C	 0.0087021279	 1.5359898278	-0.1312087442	-0.082466
O	 1.2829704942	 2.1542608551	 0.0522499573	-0.277927
C	 2.2307600504	 1.4473018986	 0.8392741894	 0.065771
C	 1.7871727485	 1.2364132548	 2.2908782759	-0.075555
O	 0.6229095513	 0.4293630529	 2.4299778324	-0.265619
C	 0.3516201747	-0.4993181386	 1.4147563903	 0.103619
C	-0.0254730225	 0.0254657507	 0.0510261687	-0.10885
C	 1.2789335293	-0.7306004186	 0.2495486196	-0.098215
C	 2.5463394387	 0.0933341479	 0.1968000203	-0.234795
H	-0.7148123187	 1.9918034532	 0.5614392081	 0.104565
H	-0.3024777672	 1.7928052614	-1.1498177104	 0.106003
H	 3.1188123405	 2.0877553139	 0.8515989207	 0.086752
H	 2.6277830587	 0.7857019256	 2.8427647135	 0.091153
H	 1.5494724256	 2.1969808581	 2.7583913498	 0.112867
H	-0.1950439335	-1.342931042	 1.8231191076	 0.095962
H	-0.8327374287	-0.4690720542	-0.480742135	 0.087107
H	 1.3355971605	-1.7424316583	-0.1409203938	 0.085117
H	 2.8773245328	 0.2454612861	-0.8359512709	 0.105788
H	 3.3587077974	-0.4031799845	 0.7410339005	 0.098722
112.5306	161.802	346.8643	365.5386	413.5624	504.3626	527.2238	602.7909	688.4192	752.2583	770.6743	791.1675	870.1036	883.0262	898.5371	934.7022	955.4654	1011.147	1031.4406	1067.5593	1075.4053	1096.4553	1099.6123	1120.3552	1128.1958	1175.3935	1216.9064	1249.9722	1267.9376	1282.8436	1306.8642	1345.81	1355.6289	1369.7539	1378.3465	1406.7407	1419.2068	1451.7535	1489.4235	1506.069	1512.7389	2976.3449	2987.8731	3028.6876	3053.7477	3060.7787	3072.6276	3076.9583	3142.0299	3149.8512	3165.0541
C1OC2COC3C1C3C2	C1O[C@H]2CO[C@H]3[C@@H]1[C@H]3C2	
InChI=1S/C7H10O2/c1-4-2-9-7-5(1)6(7)3-8-4/h4-7H,1-3H2	InChI=1S/C7H10O2/c1-4-2-9-7-5(1)6(7)3-8-4/h4-7H,1-3H2/t4-,5-,6+,7-/m1/s1
