16
gdb 84302	2.08456	1.86634	1.07574	6.0112	75.55	-0.2623	-0.0683	0.194	1088.5571	0.12453	-400.799211	-400.790977	-400.790033	-400.832657	30.169	
C	-0.0178365844	 1.5967807077	-0.1229242944	-0.398489
C	-0.0035748523	 0.0648620217	 0.01258183	-0.066183
C	 0.6987594806	-0.5923162859	-1.1525187686	-0.043153
C	 1.8016769086	-1.2719720507	-0.8231136557	-0.182863
C	 2.0287539917	-1.2236495605	 0.6337997708	 0.383742
O	 2.9478691805	-1.6701090067	 1.2667589868	-0.305038
C	 0.7823895847	-0.4903938863	 1.2409254556	-0.292059
C	 1.1428122691	 0.4832075304	 2.2587108782	 0.299822
N	 1.4203201046	 1.2679490144	 3.0604683256	-0.330568
H	 0.9983551552	 1.9998898672	-0.1553933947	 0.141225
H	-0.530796622	 1.8880012685	-1.0445348053	 0.120665
H	-0.5380407201	 2.0579203391	 0.7198881926	 0.147499
H	-1.0439370378	-0.2793202168	 0.0560783256	 0.107514
H	 0.3205254127	-0.4708440249	-2.1625910701	 0.128053
H	 2.4778976698	-1.7900797077	-1.4901948469	 0.131691
H	 0.1939816091	-1.2775360296	 1.7281390305	 0.158141
39.9673	142.6551	180.9755	220.3287	238.5699	336.9789	408.8069	419.4557	500.0464	548.9338	659.0269	663.9066	740.7675	790.128	825.7809	884.5177	934.3849	995.4965	1005.3878	1068.9083	1091.9655	1106.538	1142.288	1162.0213	1195.719	1299.0959	1315.9644	1335.1688	1362.5076	1415.9445	1493.4666	1495.7334	1652.3977	1834.7712	2360.1525	3030.1421	3045.4295	3047.6273	3117.2568	3130.6262	3189.3549	3233.2048
CC1C=CC(=O)C1C#N	C[C@H]1C=CC(=O)[C@H]1C#N	
InChI=1S/C7H7NO/c1-5-2-3-7(9)6(5)4-8/h2-3,5-6H,1H3	InChI=1S/C7H7NO/c1-5-2-3-7(9)6(5)4-8/h2-3,5-6H,1H3/t5-,6-/m0/s1
