19
gdb 39686	4.26773	1.06635	0.91888	2.0868	71.75	-0.2375	0.079	0.3165	1288.8296	0.160068	-460.136571	-460.128239	-460.127295	-460.171072	29.772	
C	 0.1217874758	 1.403915556	-0.0798256018	-0.062098
C	 1.6355159009	 1.4623694365	 0.2076570868	-0.2938
C	 1.4330268285	 0.0419419311	 0.7747381692	 0.133834
O	 0.0393646524	 0.0442000508	 0.402266931	-0.29054
C	 2.2074822948	-1.0754777367	 0.0882378646	 0.194927
O	 3.5916897846	-0.8374848771	 0.2916451772	-0.271422
C	 4.1818300839	-2.0612796294	 0.7124404771	-0.084546
C	 3.0176495985	-2.7651618378	 1.4036684006	-0.100331
O	 1.9050872509	-2.3519328602	 0.6204318258	-0.259438
H	-0.4972204415	 2.0842651872	 0.518219734	 0.102416
H	-0.1789037781	 1.4840909862	-1.1309962165	 0.10535
H	 2.2755807118	 1.5049165748	-0.6755139501	 0.119785
H	 1.9634082437	 2.2165236222	 0.9231064575	 0.113765
H	 1.5630082219	-0.0535666069	 1.8608986348	 0.0738
H	 1.9588595468	-1.0986888049	-0.9844316437	 0.080222
H	 4.5436228957	-2.6400754775	-0.1495589654	 0.10331
H	 5.0224507072	-1.8330217718	 1.3723045648	 0.115885
H	 3.0737782417	-3.8560762344	 1.3758015751	 0.116688
H	 2.9168499707	-2.436956698	 2.448332739	 0.102191
47.5157	72.3002	80.4745	153.3445	254.2407	335.6256	372.8916	451.1154	651.827	750.809	768.4898	834.2891	885.8879	907.6081	947.4299	952.4425	967.6954	994.5628	1014.4298	1042.0053	1069.616	1094.4732	1141.1467	1151.1448	1167.2893	1181.0858	1214.7234	1226.6301	1247.5363	1255.9035	1265.0606	1308.0679	1332.1754	1357.8235	1381.6286	1383.9274	1427.3943	1491.866	1513.092	1520.0218	1531.9509	2983.6785	2997.6907	3006.8593	3015.3431	3023.127	3057.834	3085.2513	3098.6286	3104.6451	3141.0367
C1CC(O1)C1OCCO1	C1C[C@@H](O1)C1OCCO1	
InChI=1S/C6H10O3/c1-2-7-5(1)6-8-3-4-9-6/h5-6H,1-4H2	InChI=1S/C6H10O3/c1-2-7-5(1)6-8-3-4-9-6/h5-6H,1-4H2/t5-/m1/s1
