19
gdb 92656	2.74647	1.60773	1.28703	2.0961	71.14	-0.2507	0.0817	0.3323	1042.5968	0.160489	-460.144941	-460.137089	-460.136145	-460.177697	29.997	
C	 0.2142248587	 1.5700397279	-0.103985936	-0.399155
C	 0.0954241514	 0.0730097016	 0.0593414582	 0.141419
O	 0.9553761194	-0.6623605182	-0.8507792582	-0.311213
C	 1.4039450522	-1.5307008717	 0.2048909514	 0.109939
C	 2.9115710848	-1.6966961474	 0.2750018651	-0.125008
O	 3.5461974074	-0.5722799175	 0.8668070482	-0.224057
C	 2.9562720031	-0.271565307	 2.0970881213	 0.016818
O	 1.6546870959	 0.2432112797	 1.9582003147	-0.250827
C	 0.7579399996	-0.6164783903	 1.2793512478	 0.025112
H	 1.2415889859	 1.890587252	 0.0733278712	 0.138142
H	-0.0801393384	 1.8524119714	-1.1194621678	 0.123411
H	-0.4439418722	 2.0867593033	 0.6020681451	 0.117566
H	-0.9475913418	-0.2549687642	-0.061734461	 0.070286
H	 0.9214301914	-2.5166783924	 0.1379435324	 0.073006
H	 3.1497378296	-2.6058776321	 0.8524356578	 0.091285
H	 3.3200792468	-1.8050765072	-0.7333670858	 0.129259
H	 2.9471172869	-1.1714793299	 2.7417046814	 0.074731
H	 3.5485407219	 0.5179163769	 2.5630791448	 0.121805
H	 0.0855556371	-1.0977864349	 1.9985424996	 0.07748
54.0209	152.1565	191.3014	252.1	324.0547	370.1125	411.3589	462.1782	521.1531	565.9034	716.2831	796.1217	813.0327	860.7324	909.351	918.4219	958.7939	978.2442	1025.0898	1054.0872	1076.0408	1106.8967	1133.7776	1156.915	1173.7529	1210.8317	1252.9013	1267.8769	1290.3239	1321.0439	1342.7657	1352.9647	1366.7567	1391.7016	1405.434	1412.6398	1446.5943	1477.4308	1480.6802	1491.7437	1514.4813	2919.0481	2967.1457	2991.9032	2998.9626	3039.7443	3045.8871	3098.4297	3111.4385	3117.0167	3148.9342
CC1OC2COCOC12	C[C@H]1O[C@H]2COCO[C@@H]12	
InChI=1S/C6H10O3/c1-4-6-5(9-4)2-7-3-8-6/h4-6H,2-3H2,1H3	InChI=1S/C6H10O3/c1-4-6-5(9-4)2-7-3-8-6/h4-6H,2-3H2,1H3/t4-,5+,6+/m1/s1
