20
gdb 113736	2.57902	1.09159	0.90418	1.6892	80.33	-0.235	0.0183	0.2533	1373.5316	0.170489	-399.299581	-399.289586	-399.288642	-399.335093	35.984	
C	-0.2801528521	 1.7132942594	-0.1761587288	-0.374989
C	-0.0303668699	 0.2789534367	 0.2828560975	-0.14128
N	-1.2678574947	-0.4960558211	 0.1888162327	-0.083002
C	-1.5604270981	-1.2156813496	-1.0456361307	-0.269966
C	-1.2513925572	-1.9489497506	 0.2169097107	 0.007136
C	 0.0058830329	-2.8106847965	 0.4063266596	-0.143159
N	-0.4198917698	-4.2081476738	 0.5557807937	-0.500047
C	 1.0145104856	-2.6526968583	-0.6616188429	 0.271702
N	 1.8090548033	-2.6037347256	-1.5013938607	-0.344668
H	 0.6261944839	 2.3158166762	-0.0643016628	 0.115329
H	-0.574567696	 1.7386041731	-1.2303140706	 0.121787
H	-1.0815797807	 2.1703575908	 0.4107312577	 0.126953
H	 0.7953522247	-0.1542797734	-0.3010871459	 0.114787
H	 0.2779581015	 0.2759056035	 1.3356147473	 0.103389
H	-2.5824776739	-1.1511339079	-1.4100320542	 0.117744
H	-0.7970271417	-1.228502346	-1.822681877	 0.133489
H	-2.0658397339	-2.3887858436	 0.7893169015	 0.114295
H	 0.4843288136	-2.5177874076	 1.349913264	 0.138595
H	-0.8330187774	-4.5317430414	-0.3151769179	 0.245225
H	 0.3873025996	-4.7998662643	 0.7295447568	 0.24668
46.8303	76.2024	120.6631	159.0309	212.9135	236.7649	253.8956	301.5596	331.6117	351.5413	419.623	543.4708	596.3947	637.9672	722.8723	804.7538	817.0638	864.6383	926.4654	931.3662	979.027	1042.6036	1060.2688	1091.456	1112.8018	1124.5824	1139.2194	1150.3105	1199.9222	1219.2619	1308.7651	1315.44	1347.3267	1379.9913	1390.7298	1399.408	1412.3167	1488.302	1491.901	1504.8339	1517.5894	1661.2127	2337.9319	2994.9997	3030.6646	3040.7851	3047.8295	3091.6726	3111.0311	3121.9931	3125.7345	3178.4518	3490.4711	3571.7083
CCN1CC1C(N)C#N	CCN1C[C@H]1[C@@H](N)C#N	
InChI=1S/C6H11N3/c1-2-9-4-6(9)5(8)3-7/h5-6H,2,4,8H2,1H3	InChI=1S/C6H11N3/c1-2-9-4-6(9)5(8)3-7/h5-6H,2,4,8H2,1H3/t5-,6-,9?/m0/s1
