19
gdb 63037	3.29175	1.24915	1.17697	2.04	75.96	-0.25	0.0684	0.3184	1128.7301	0.157443	-422.969363	-422.960873	-422.959929	-423.001909	33.488	
C	-0.0113065761	 1.5707956534	 0.1036523202	-0.466786
C	 0.0882974507	 0.0620150461	 0.0836994238	 0.40837
O	-1.0830971547	-0.5669329787	-0.3867451195	-0.474958
C	 1.3367295199	-0.7241619389	-0.2290219482	-0.12642
C	 2.6015384237	-0.0679679766	 0.3435805211	-0.351032
C	 1.9385418157	-0.138114102	 1.7352796221	 0.44723
C	 2.5745347801	-0.355968371	 3.0325406665	-0.266084
O	 1.9623771114	 0.9002180809	 2.7065789775	-0.277021
C	 0.689275792	-0.7725684859	 1.1813606154	-0.191065
H	 0.8544446587	 2.0413185661	 0.5723416489	 0.144533
H	-0.103256765	 1.9642933557	-0.9168561454	 0.102024
H	-0.9023643903	 1.8698678193	 0.6635966312	 0.131224
H	-1.1937429242	-0.3209702845	-1.3119076406	 0.28096
H	 1.3181227597	-1.5035757052	-0.980080342	 0.090659
H	 3.485758268	-0.7069138914	 0.2723896068	 0.112341
H	 2.8551383257	 0.9297906715	-0.026036007	 0.109366
H	 2.0620306534	-0.9381788312	 3.7980010466	 0.116031
H	 3.6615084964	-0.3424562248	 3.1107087317	 0.112473
H	 0.1061446449	-1.5597018329	 1.6431651508	 0.098155
106.7161	198.8014	199.7953	241.2066	288.1002	303.787	365.4951	404.6302	428.2831	457.2955	505.766	597.3471	675.7836	792.11	833.7314	851.0839	884.7285	909.4578	927.9707	967.7078	988.8896	1005.0742	1023.6239	1075.9573	1093.8869	1111.5288	1126.7285	1163.3555	1170.3081	1185.4378	1240.4436	1260.0591	1274.476	1306.6307	1414.6076	1426.9044	1447.8595	1480.6062	1491.8242	1503.0431	1537.3929	3025.8618	3054.2329	3074.5338	3096.3972	3103.556	3141.5926	3160.0777	3189.7948	3199.3856	3795.5692
CC1(O)C2CC3(CO3)C12	C[C@@]1(O)[C@H]2C[C@]3(CO3)[C@@H]12	
InChI=1S/C7H10O2/c1-6(8)4-2-7(3-9-7)5(4)6/h4-5,8H,2-3H2,1H3	InChI=1S/C7H10O2/c1-6(8)4-2-7(3-9-7)5(4)6/h4-5,8H,2-3H2,1H3/t4-,5+,6+,7-/m0/s1
