19
gdb 63211	2.70923	1.51664	1.25785	1.2484	85.58	-0.2159	-0.0359	0.18	1072.5175	0.159374	-385.908119	-385.899806	-385.898862	-385.940209	33.465	
C	-0.341731671	 1.5653522444	 0.0018090407	-0.424966
C	-0.0588305508	 0.0550145278	-0.0134831866	 0.273059
O	-1.2962189019	-0.664443012	 0.0465802595	-0.474536
C	 0.718078535	-0.3729079778	-1.2443301904	-0.130746
C	 1.9813454469	-0.0169260514	-1.5475355317	-0.064342
C	 2.9216071146	 0.6698010051	-0.6975564376	-0.110838
C	 2.9215992935	 0.6559875127	 0.6611303796	-0.103647
C	 1.9820399694	-0.0436614879	 1.5015548059	-0.078562
C	 0.7168112143	-0.3937014146	 1.2016807361	-0.08461
H	 0.5857162559	 2.1413161081	 0.0059551848	 0.135826
H	-0.9117443615	 1.8501834581	-0.891482171	 0.099574
H	-0.9245821685	 1.8210197427	 0.8916296865	 0.119912
H	-1.8825390193	-0.2881649336	-0.6178904257	 0.27588
H	 0.1641158564	-1.0097638794	-1.9299288122	 0.092588
H	 2.3587405672	-0.3061621738	-2.5266272782	 0.093235
H	 3.7664069197	 1.1395249821	-1.1954699102	 0.090407
H	 3.7669201815	 1.1161296757	 1.1672099195	 0.090934
H	 2.3597729404	-0.3428111638	 2.4772601975	 0.093717
H	 0.1514245683	-1.0227778223	 1.8829935733	 0.107116
127.1167	218.5229	260.8012	263.8397	287.2877	328.8133	373.2038	426.0284	431.4532	445.6131	483.6004	638.2438	679.7541	713.6442	779.736	799.8663	845.6894	871.3812	940.2865	953.7188	970.3744	976.439	991.0773	1005.3079	1037.7552	1097.9425	1126.9992	1181.5879	1238.2895	1242.5605	1255.5357	1355.2725	1387.5246	1391.815	1433.7391	1472.3622	1480.3817	1493.0384	1589.6815	1669.1343	1680.7653	3024.605	3099.2771	3133.9321	3136.85	3139.288	3149.4752	3161.93	3168.7463	3180.2775	3816.586
CC1(O)C=CC=CC=C1	C[C@@]1(O)C=CC=CC=C1	
InChI=1S/C8H10O/c1-8(9)6-4-2-3-5-7-8/h2-7,9H,1H3	InChI=1S/C8H10O/c1-8(9)6-4-2-3-5-7-8/h2-7,9H,1H3
