16
gdb 61125	3.45102	0.88747	0.77653	2.5477	76.92	-0.2543	0.0042	0.2585	1436.9965	0.122656	-396.911384	-396.90177	-396.900826	-396.946723	34.344	
N	-0.2112384751	 0.3331445456	-1.0703051821	-0.546966
C	-0.3536848447	-0.3734705484	 0.098463408	 0.376472
C	 0.9029938549	-1.0924050631	 0.58949956	-0.393174
C	 1.6456981278	-1.7673833036	-0.4720569592	 0.252022
N	 2.2223626427	-2.2657863277	-1.34095442	-0.31053
N	-1.3697800511	-0.426116152	 0.8695665421	-0.285344
C	-2.5564806503	 0.3563735585	 0.518062841	-0.313518
C	-3.1760483033	 0.0162289085	-0.7677541265	 0.296024
C	-3.6534223932	-0.2643257493	-1.8360523783	-0.458952
H	 0.5535938855	 0.0704294203	-1.6746550712	 0.270485
H	-1.0624227788	 0.5631416637	-1.5647915057	 0.269326
H	 1.5702001243	-0.3626455087	 1.0647422539	 0.17395
H	 0.5963421231	-1.8053682676	 1.3564999962	 0.184349
H	-3.295870012	 0.2066612263	 1.3118540742	 0.145188
H	-2.3177437493	 1.4323281648	 0.517204285	 0.134758
H	-4.0995091806	-0.5257277772	-2.7640570074	 0.20591
39.5044	73.4105	102.5585	162.5738	236.7224	279.0009	329.0844	368.2156	379.8807	444.7392	454.4612	532.4069	580.9549	630.6649	656.0216	673.7797	705.4046	860.739	917.0477	942.6424	953.1789	1003.4993	1019.579	1157.3001	1215.4799	1267.9451	1303.7269	1344.1322	1370.9904	1447.5796	1474.9601	1663.1466	1739.4834	2223.6	2360.0003	2978.3044	3047.091	3061.0395	3129.4002	3501.3422	3550.9433	3657.2396
NC(CC#N)=NCC#C	NC(=NCC#C)CC#N	
InChI=1S/C6H7N3/c1-2-5-9-6(8)3-4-7/h1H,3,5H2,(H2,8,9)	InChI=1S/C6H7N3/c1-2-5-9-6(8)3-4-7/h1H,3,5H2,(H2,8,9)
