21
gdb 80062	2.80721	1.8033	1.60816	0.2513	86.03	-0.2263	0.0204	0.2467	965.5886	0.185476	-349.929367	-349.922304	-349.92136	-349.960239	30.303	
C	-0.19104555	 1.6123474952	-0.0084401942	-0.424378
C	 0.0626320855	 0.1131326696	 0.0204264348	 0.053075
C	 1.1678944593	-0.5865658057	-0.8714857597	-0.110986
C	 2.3920593354	 0.2852779407	-0.8424921281	-0.069599
C	 2.8933044108	 0.5050728543	 0.3753110625	-0.068833
C	 2.2723323613	-0.3211004248	 1.4712082037	-0.085794
C	 2.528181734	-1.8150533027	 1.0580502496	-0.227307
C	 1.2304616607	-1.7194471896	 0.254241181	-0.018799
C	 0.7170573835	-0.5991374893	 1.2094171103	-0.041005
H	 0.7171628277	 2.1839859309	 0.1951915538	 0.119024
H	-0.5801491143	 1.9303361786	-0.98286028	 0.107642
H	-0.9367019651	 1.8828942218	 0.7479738166	 0.108415
H	-0.8792454223	-0.4173926362	-0.1717443123	 0.070233
H	 0.8730798947	-0.9017662392	-1.8732871473	 0.055888
H	 2.7658224753	 0.7558244412	-1.7456179562	 0.085749
H	 3.7423684228	 1.1495601593	 0.5778672202	 0.086302
H	 2.5568747038	-0.0133318147	 2.4776108624	 0.059837
H	 3.4751326003	-2.0402629293	 0.5596766657	 0.090544
H	 2.3818317937	-2.493383403	 1.9051511504	 0.09402
H	 0.6506887559	-2.6122259703	 0.0138784005	 0.059595
H	 0.1492640869	-0.800954887	 2.1203423262	 0.056378
180.8694	197.6464	247.5517	375.5646	391.1725	487.783	515.7633	583.7351	643.0199	697.1057	721.8595	763.803	782.9532	811.0894	844.513	896.6072	922.4188	948.4671	952.8304	960.5042	996.711	1018.3319	1051.1581	1069.6616	1083.9446	1091.152	1119.6635	1129.726	1147.3708	1166.3634	1192.905	1219.6304	1238.8306	1271.6894	1285.9641	1292.0637	1309.5122	1346.9827	1374.0417	1398.9247	1407.5151	1483.8292	1489.9493	1503.9282	1676.4127	3015.6308	3028.8787	3040.8088	3078.618	3084.3597	3088.9043	3097.6143	3099.0581	3105.283	3121.758	3168.9163	3193.2495
CC1C2C=CC3CC2C13	C[C@H]1[C@H]2C=C[C@@H]3C[C@H]2[C@H]13	
InChI=1S/C9H12/c1-5-7-3-2-6-4-8(7)9(5)6/h2-3,5-9H,4H2,1H3	InChI=1S/C9H12/c1-5-7-3-2-6-4-8(7)9(5)6/h2-3,5-9H,4H2,1H3/t5-,6+,7+,8+,9+/m0/s1
