19
gdb 57266	2.21687	1.41858	1.31051	0.289	76.86	-0.2512	0.0355	0.2868	1113.107	0.154638	-422.969849	-422.959679	-422.958735	-423.004109	38.804	
C	 0.1761455627	 1.4502929657	 0.1670440089	-0.419342
C	-0.0150368721	-0.065668676	 0.0126549825	 0.116202
O	 0.5836379618	-0.659332332	 1.1714332699	-0.452888
C	-1.4426457456	-0.40869573	-0.0435184321	 0.32295
C	-2.600677154	-0.7307175429	-0.0522957352	-0.484326
C	 0.6877353194	-0.5691347921	-1.2675437434	 0.405065
O	 0.1618037697	-0.025166423	-2.4478296039	-0.470373
C	 2.1580492213	-0.888855612	-1.2266605843	-0.335022
C	 1.1275891652	-1.9933297961	-1.3797452654	-0.301547
H	 1.2443159963	 1.673629729	 0.2408797813	 0.125525
H	-0.2512843882	 1.9847241921	-0.6844130449	 0.120516
H	-0.3192444735	 1.7948211361	 1.076676268	 0.134083
H	 0.1184764406	-1.4825910089	 1.3506560473	 0.290352
H	-3.6261590089	-1.0066916354	-0.0746347448	 0.199949
H	 0.5262040507	 0.8595317209	-2.5578850613	 0.283767
H	 2.7409116831	-0.6221962598	-2.1015450275	 0.109073
H	 2.6694453738	-0.8117449953	-0.2751156909	 0.129408
H	 0.9739230615	-2.6594029166	-0.5389383983	 0.103199
H	 1.0141568065	-2.4488188638	-2.3561300858	 0.123409
68.9834	129.8282	178.7732	219.4231	241.2789	247.1279	275.0423	300.1013	351.9225	371.2978	401.5916	440.3823	492.3941	532.7612	587.2999	628.9553	658.0558	665.819	775.6096	829.5082	907.5398	926.6409	940.5566	954.9789	993.6986	1051.7317	1072.3559	1084.5294	1145.3582	1172.7957	1192.3556	1266.9502	1305.3811	1356.6605	1362.7565	1396.7763	1440.3761	1486.0552	1490.6596	1493.7539	2231.7596	3051.4427	3130.4782	3139.2338	3140.5484	3145.0919	3228.8708	3241.4174	3500.2389	3803.825	3827.4539
CC(O)(C#C)C1(O)CC1	C[C@@](O)(C#C)C1(O)CC1	
InChI=1S/C7H10O2/c1-3-6(2,8)7(9)4-5-7/h1,8-9H,4-5H2,2H3	InChI=1S/C7H10O2/c1-3-6(2,8)7(9)4-5-7/h1,8-9H,4-5H2,2H3/t6-/m1/s1
