18
gdb 9525	2.70786	1.78995	1.59691	2.0187	67.87	-0.246	-0.0284	0.2176	930.6508	0.151439	-384.952342	-384.943489	-384.942545	-384.98566	32.187	
C	-0.3620599577	 1.4071552441	 0.0948218572	-0.392095
C	-0.0537687864	-0.0861204928	-0.0350644071	-0.215651
C	 0.8854358213	-0.4094783039	-1.2067879558	 0.329983
O	 2.1096622466	 0.2664889429	-1.045375933	-0.485192
C	 0.9355257709	-1.9454090655	-1.5335779025	-0.287108
C	-0.0968541578	-1.7415183261	-2.6885077292	-0.338202
C	 0.2480039093	-0.2519558873	-2.5987975083	 0.336048
O	 0.3105611149	 0.6484872507	-3.3903950494	-0.31877
H	 0.5634249252	 1.975672829	 0.2146043805	 0.132408
H	-0.8795649339	 1.7876567204	-0.7918832352	 0.125962
H	-0.9972145728	 1.5990647979	 0.964426749	 0.112697
H	 0.4375144033	-0.450985727	 0.8756636515	 0.11197
H	-0.980722884	-0.6625033775	-0.1425620549	 0.095559
H	 2.2252358081	 0.8365909689	-1.8156731479	 0.294486
H	 1.9212866008	-2.2266914498	-1.9074339815	 0.121142
H	 0.6404602786	-2.6145506023	-0.7240451101	 0.109524
H	 0.0942293219	-2.2145967632	-3.6533711047	 0.132887
H	-1.1261462481	-1.9546323785	-2.3856470685	 0.134351
77.2052	105.5594	164.6426	184.7938	232.1986	238.8284	306.1307	354.3863	446.7793	483.3789	553.115	691.6567	736.3022	760.2608	783.0107	876.602	907.8675	957.4797	1002.1854	1024.7989	1042.5939	1079.9301	1109.3844	1165.6977	1183.796	1203.9678	1229.0821	1259.1183	1322.1988	1356.4383	1376.4212	1408.8499	1446.3375	1475.6602	1484.8824	1494.9053	1510.263	1868.113	3025.8337	3042.9278	3062.5044	3068.8119	3082.107	3109.3892	3126.7959	3127.0645	3146.1929	3777.7928
CCC1(O)CCC1=O	CC[C@@]1(O)CCC1=O	
InChI=1S/C6H10O2/c1-2-6(8)4-3-5(6)7/h8H,2-4H2,1H3	InChI=1S/C6H10O2/c1-2-6(8)4-3-5(6)7/h8H,2-4H2,1H3/t6-/m1/s1
