16
gdb 14388	3.74343	2.24359	1.90328	0.6072	62.76	-0.2267	0.0722	0.2989	750.1497	0.129627	-383.664992	-383.658201	-383.657257	-383.69534	27.4	
C	 0.0156964854	 1.5560813219	 0.0354785236	-0.467686
C	 0.0528569766	 0.0393562989	-0.0120490396	 0.427686
O	-1.2391997364	-0.5346861679	 0.1190753583	-0.477895
C	 0.7677508428	-0.6728311103	-1.1583760986	-0.152672
C	 2.2314793634	-0.7839110475	-0.7006483898	 0.079859
O	 2.3641647629	-0.1079470995	 0.5553125233	-0.291848
C	 1.0852842491	-0.7087794956	 0.900628081	-0.006309
C	 1.2442166388	-1.7883468235	-0.230506657	-0.137408
H	 1.028187938	 1.961850368	-0.0083978732	 0.140458
H	-0.5689691812	 1.9506617346	-0.8013670441	 0.122149
H	-0.4497600315	 1.9052787865	 0.9666221996	 0.100349
H	-1.6506045942	-0.1452649777	 0.8985341643	 0.275825
H	 0.4611718237	-0.7398904016	-2.194502019	 0.092719
H	 3.0844779954	-0.8391143545	-1.3637066498	 0.112484
H	 0.9291314383	-0.8488400278	 1.9695423747	 0.079002
H	 1.1747518287	-2.8649870441	-0.2750459539	 0.103287
220.6214	223.9371	238.619	308.4601	372.1746	396.8211	542.7092	587.6962	633.9554	775.7821	783.2616	807.6961	813.3621	876.4369	910.6933	937.2823	954.9887	980.0299	1029.1139	1034.2085	1052.0143	1073.1385	1121.6889	1151.6985	1176.1519	1197.4496	1210.2568	1222.169	1287.9382	1371.7122	1395.0749	1407.3967	1485.7205	1499.2527	3022.184	3092.0086	3132.0857	3138.122	3198.9555	3208.8633	3228.7892	3799.1822
CC1(O)C2C3OC1C23	C[C@@]1(O)[C@H]2[C@H]3O[C@@H]1[C@@H]23	
InChI=1S/C6H8O2/c1-6(7)3-2-4(3)8-5(2)6/h2-5,7H,1H3	InChI=1S/C6H8O2/c1-6(7)3-2-4(3)8-5(2)6/h2-5,7H,1H3/t2-,3+,4-,5+,6+/m0/s1
