18
gdb 37263	3.64438	1.95699	1.8828	1.7669	75.88	-0.2293	0.0814	0.3107	815.6779	0.151627	-364.73237	-364.72676	-364.725816	-364.761882	25.291	
C	-0.0396886154	 1.5183606427	 0.0758885616	-0.298208
C	 1.2995936571	 0.8228410856	 0.0105093809	-0.059245
C	 0.0095954371	 0.0113093396	 0.0370466525	-0.038659
C	-0.0265694906	-0.6886984118	-1.3151362826	 0.014841
C	 1.4281642287	-0.9137991315	-1.7951260501	-0.098894
C	 0.9825772366	-0.3455938127	-3.1759304972	-0.068222
C	 1.061218526	 0.998058827	-2.5663044253	-0.071567
C	 1.8962921496	 0.526236037	-1.3644920233	-0.03289
N	-0.2336188621	 0.2184543389	-2.5197884061	-0.155524
H	-0.3109518586	 1.9706375875	 1.0244505418	 0.106498
H	-0.4085220362	 2.0469524929	-0.7943317727	 0.135841
H	 1.9573210159	 0.8721157884	 0.8713444067	 0.080514
H	-0.3004214701	-0.5454714837	 0.9145984468	 0.081729
H	-0.711722917	-1.5342878702	-1.3851348677	 0.073094
H	 2.0162492042	-1.8029572939	-1.5751602905	 0.06887
H	 1.0067775312	-0.694837646	-4.1984622328	 0.097271
H	 1.0131996368	 1.9776029429	-3.0246999803	 0.094603
H	 2.9634467371	 0.7229746672	-1.4723972917	 0.069949
271.3706	297.686	515.4778	519.7772	651.995	652.559	738.445	765.0548	793.188	805.5055	824.4631	845.0525	873.2977	901.7041	908.2343	934.5757	947.3952	956.8887	982.2594	993.165	1031.8497	1041.2566	1065.0116	1076.7236	1092.2767	1101.6315	1131.8561	1146.2448	1192.4652	1193.2365	1213.2637	1230.986	1251.7468	1304.3106	1311.5584	1334.3098	1340.7289	1378.6093	1483.9878	3106.5048	3109.7384	3132.814	3136.3534	3161.8434	3170.7247	3193.3667	3217.9309	3227.2244
C1C2C1C1C3C4C(C23)N14	C1[C@H]2[C@@H]1[C@@H]1[C@H]3[C@@H]4[C@H]([C@@H]23)N14	
InChI=1S/C8H9N/c1-2-3(1)6-5-4(2)7-8(5)9(6)7/h2-8H,1H2	InChI=1S/C8H9N/c1-2-3(1)6-5-4(2)7-8(5)9(6)7/h2-8H,1H2/t2-,3+,4-,5-,6+,7-,8+,9?/m0/s1
