19
gdb 17278	5.00114	1.1176	1.06028	1.8081	72.53	-0.234	0.0907	0.3247	1185.3015	0.164466	-365.008628	-365.000189	-364.999245	-365.042111	30.723	
C	 0.0054143537	 1.4191834931	-0.1986731188	-0.420224
C	 0.1428584581	-0.0565547602	 0.0815296597	 0.077443
O	 1.4646637247	-0.5860220787	 0.2362526966	-0.262347
C	 0.5732453774	-0.6459937425	 1.3597705072	 0.073521
C	 0.9566842036	 0.1447499162	 2.5867848806	-0.186031
N	 1.8738765923	-0.6372059991	 3.4104072621	-0.068818
C	 3.2844837173	-0.555058191	 3.0361021006	-0.209511
C	 2.7823309636	 0.1233023932	 4.2623410737	-0.224565
H	 0.659160549	 2.0199901733	 0.4359115028	 0.126647
H	 0.2624654306	 1.6277691701	-1.242547383	 0.130141
H	-1.0295431809	 1.7416229301	-0.0400812848	 0.122636
H	-0.50014533	-0.6846717757	-0.5396493169	 0.087094
H	 0.2278049095	-1.6552502549	 1.5899701412	 0.096881
H	 1.3876017503	 1.1141635026	 2.2885601872	 0.086721
H	 0.0574133201	 0.3480178103	 3.1829930614	 0.106071
H	 3.8441778991	-1.4827276352	 3.1094691308	 0.117181
H	 3.5442314264	 0.0685766231	 2.1839027625	 0.123725
H	 2.7154705613	 1.2101589138	 4.2392177764	 0.106909
H	 2.9704245538	-0.2983529385	 5.2455865106	 0.116526
60.1091	91.2086	135.5721	171.6919	254.5179	321.1008	370.0528	406.5691	502.5333	513.3676	759.2264	773.1474	829.5287	839.7455	907.0231	916.8648	984.4538	1007.0539	1033.1041	1044.4494	1100.4323	1107.2134	1117.8773	1119.2314	1170.6154	1174.2046	1176.7598	1200.3627	1281.869	1305.8668	1320.8612	1351.8449	1406.8099	1419.0665	1469.799	1478.6811	1490.1475	1494.6813	1512.3252	1524.7668	2971.0963	3039.188	3040.9061	3076.2514	3093.967	3098.7022	3102.5	3110.3263	3136.7842	3179.3006	3198.4837
CC1OC1CN1CC1	C[C@H]1O[C@H]1CN1CC1	
InChI=1S/C6H11NO/c1-5-6(8-5)4-7-2-3-7/h5-6H,2-4H2,1H3	InChI=1S/C6H11NO/c1-5-6(8-5)4-7-2-3-7/h5-6H,2-4H2,1H3/t5-,6+/m1/s1
