19
gdb 98760	3.83578	1.00709	0.99246	3.5542	75.33	-0.2384	-0.017	0.2213	1303.4558	0.157297	-422.996861	-422.987911	-422.986967	-423.031512	32.667	
C	 0.1590509495	 1.5277946396	-0.0037125638	-0.377323
C	-0.0527548731	 0.0348751463	 0.2335001596	-0.289243
C	-1.4581644589	-0.4401741017	-0.111023788	 0.371423
O	-2.3634120722	 0.3183154466	-0.3676020021	-0.303681
C	-1.6331406135	-1.9523766687	-0.1571931194	 0.028862
O	-2.9978139808	-2.4168543246	-0.1074811511	-0.283766
C	-2.8241158821	-3.1195884031	-1.3426648606	 0.111369
C	-2.5403670477	-2.1748487502	-2.4626670619	-0.297227
C	-1.4172054389	-2.6063592419	-1.5356222164	-0.155499
H	 1.165962968	 1.8296058706	 0.2971362777	 0.110909
H	 0.0246260415	 1.7785403536	-1.0594499771	 0.128915
H	-0.5668075554	 2.1145354235	 0.5638328791	 0.138537
H	 0.668478961	-0.5711295832	-0.332438554	 0.119684
H	 0.1244673232	-0.2248969426	 1.2874917785	 0.128055
H	-1.0372823793	-2.4371177902	 0.6269483561	 0.091531
H	-3.262022345	-4.1067256333	-1.4271832414	 0.107626
H	-2.489527882	-2.6232827599	-3.4500564141	 0.11666
H	-2.9362450673	-1.1653413348	-2.4197351166	 0.148336
H	-0.5155012473	-3.1025636859	-1.8659876344	 0.104833
47.6279	62.8997	135.1417	166.8793	202.5509	267.4183	359.5618	366.9401	462.4528	561.069	665.3372	734.8166	763.4384	787.9615	818.6376	884.5437	939.7632	950.4539	979.5104	991.1143	1016.2848	1025.7941	1048.1125	1056.3227	1087.377	1094.6952	1102.4689	1145.5458	1192.9093	1239.6249	1263.9969	1278.2995	1344.4557	1358.583	1381.2812	1413.3507	1450.4709	1467.5607	1492.9243	1498.6684	1812.2925	3009.9189	3025.0476	3039.2799	3052.3079	3121.4114	3127.1415	3132.0531	3187.5337	3209.0203	3222.5195
CCC(=O)C1OC2CC12	CCC(=O)[C@H]1O[C@H]2C[C@@H]12	
InChI=1S/C7H10O2/c1-2-5(8)7-4-3-6(4)9-7/h4,6-7H,2-3H2,1H3	InChI=1S/C7H10O2/c1-2-5(8)7-4-3-6(4)9-7/h4,6-7H,2-3H2,1H3/t4-,6+,7+/m1/s1
