15
gdb 62462	3.9086	1.23086	1.20548	1.474	68.41	-0.2355	0.0167	0.2523	1051.2117	0.110668	-457.68473	-457.676555	-457.67561	-457.717341	30.526	
O	-0.2357039366	 1.3584223025	 0.0666830484	-0.443805
C	-0.051937934	-0.0230040474	 0.0148158031	 0.105465
C	 1.048082697	-0.5165780164	-0.7654449654	 0.285149
C	 1.9769223123	-0.9497026091	-1.3968207231	-0.412162
C	-0.4613547911	-0.8710811357	 1.2429891495	-0.032502
O	-1.1694763958	-0.2088313997	 2.2471155825	-0.266965
C	-2.3667364142	 0.3136216335	 1.6767411496	 0.032613
O	-2.5262601084	-0.2560657483	 0.385748568	-0.258278
C	-1.3303153269	-0.8781565822	 0.0341904077	 0.009946
H	 0.4483832145	 1.7255784827	 0.6389256854	 0.294471
H	 2.792543632	-1.3211726644	-1.9667427135	 0.197933
H	 0.1569600914	-1.6849600329	 1.6000882839	 0.126409
H	-3.2207817805	 0.0318012928	 2.3050279998	 0.114025
H	-2.2848407732	 1.4024318433	 1.5900570441	 0.116443
H	-1.4522529865	-1.6956584785	-0.6645232001	 0.131258
120.5752	136.3002	166.9045	204.5662	242.2557	297.1574	434.8263	454.5191	539.6172	569.2874	597.824	686.9977	724.599	744.859	753.2414	872.8357	878.3518	944.801	1008.606	1067.075	1072.7265	1111.8955	1137.3146	1145.6991	1193.4782	1210.1633	1252.1186	1285.5658	1335.8453	1400.167	1443.2924	1541.5739	2223.3245	3020.9075	3069.7281	3194.0051	3204.3747	3499.9355	3790.1462
OC1(C#C)C2OCOC12	O[C@@]1(C#C)[C@H]2OCO[C@@H]12	
InChI=1S/C6H6O3/c1-2-6(7)4-5(6)9-3-8-4/h1,4-5,7H,3H2	InChI=1S/C6H6O3/c1-2-6(7)4-5(6)9-3-8-4/h1,4-5,7H,3H2/t4-,5+,6-
