14
gdb 12979	2.89214	2.75637	1.66826	2.8748	63.37	-0.2502	-0.0624	0.1878	760.7215	0.10748	-382.551181	-382.544577	-382.543632	-382.581614	25.808	
O	 0.038369163	 1.3884138927	-0.0804192077	-0.473827
C	-0.0438391512	 0.0111400672	-0.0038382346	 0.344853
C	-0.4420330417	-0.8089768482	-1.2187354687	-0.333468
C	-1.318410308	-0.7745960975	 0.0359947295	-0.166074
C	-1.045754768	-1.9096286479	 0.9724942641	-0.053207
C	 0.2029776353	-1.8793115711	 1.4684170467	-0.203208
C	 0.8903157806	-0.6593885314	 0.9815533653	 0.321417
O	 1.9545191542	-0.1835929678	 1.3140677231	-0.35451
H	 0.9270098794	 1.604967477	 0.2392099166	 0.297093
H	-0.7774114319	-0.2139679651	-2.0623849052	 0.133319
H	 0.0759110761	-1.7300456554	-1.4647581352	 0.124056
H	-2.2958273901	-0.3116958508	-0.0156986203	 0.115795
H	-1.7748481723	-2.6899603773	 1.1623370682	 0.124003
H	 0.6650444746	-2.5984464845	 2.130817368	 0.123759
139.0594	261.5249	309.1689	329.0764	343.5894	464.7078	489.1876	611.8209	682.2262	732.821	749.03	827.1936	851.7047	884.7249	911.9582	978.5599	984.7341	1023.839	1052.3835	1069.3608	1097.1589	1135.7368	1200.5662	1260.6116	1359.7807	1381.8374	1430.1781	1487.5796	1618.19	1804.8154	3125.0301	3191.1446	3200.6734	3224.1222	3236.8494	3727.4685
OC12CC1C=CC2=O	O[C@]12C[C@H]1C=CC2=O	
InChI=1S/C6H6O2/c7-5-2-1-4-3-6(4,5)8/h1-2,4,8H,3H2	InChI=1S/C6H6O2/c7-5-2-1-4-3-6(4,5)8/h1-2,4,8H,3H2/t4-,6-/m1/s1
