20
gdb 113561	3.04347	1.00954	0.90694	1.7329	75.59	-0.2454	0.0652	0.3106	1354.4265	0.170889	-440.238752	-440.229573	-440.228628	-440.272999	34.624	
O	 0.0337239539	 1.3098560105	-0.4631187845	-0.420257
C	 0.0116570775	 0.1345535859	 0.3282431123	-0.058525
C	-1.3532154766	-0.5107516889	 0.3057287543	-0.124574
N	-1.7063031348	-1.1195280121	-1.0003700035	-0.410907
C	-1.5677959243	-1.9716912972	 0.1729922518	 0.306383
C	-0.5837151409	-3.1305952716	 0.3756527484	-0.30566
C	-1.5362211725	-3.6661639411	 1.4857788834	-0.261631
C	-2.6623409968	-2.7552282736	 0.9150574652	 0.074654
O	-3.5542340887	-2.0861140737	 1.7675386136	-0.423838
H	-0.2695338964	 1.0404036479	-1.3385553046	 0.290445
H	 0.7665415896	-0.589632691	-0.0124681508	 0.090164
H	 0.2766123661	 0.4414968786	 1.3460659448	 0.102945
H	-2.1402545703	 0.0517790908	 0.8063834808	 0.093377
H	-2.6925575661	-0.9689137343	-1.2038054535	 0.236175
H	-0.5470868375	-3.7854510929	-0.4992209449	 0.115943
H	 0.4373237634	-2.8842933589	 0.6715547391	 0.111326
H	-1.7291368745	-4.7394604042	 1.5237538227	 0.107953
H	-1.228375317	-3.3265044137	 2.4800638786	 0.098992
H	-3.2910283395	-3.3075315954	 0.2072962923	 0.097374
H	-3.0343214046	-1.6205564452	 2.4320255645	 0.279662
66.8369	103.6615	144.6019	153.7337	230.6915	301.3618	345.4973	411.9925	434.9074	451.4726	515.7934	541.6215	582.1246	720.4203	786.892	841.8698	858.4713	921.3871	953.3866	976.3165	1009.3718	1018.2197	1051.597	1068.1244	1091.4548	1102.5712	1144.7019	1171.5694	1194.7037	1224.5038	1244.7163	1258.79	1272.1708	1297.3313	1313.1785	1339.0413	1378.4521	1425.6808	1431.6686	1475.7431	1481.5899	1497.2634	1501.3773	2994.3286	3048.2729	3057.0101	3067.5755	3068.9046	3116.1112	3121.5067	3127.8663	3482.4165	3788.1691	3802.3626
OCC1NC11CCC1O	OC[C@H]1N[C@]21CC[C@H]2O	
InChI=1S/C6H11NO2/c8-3-4-6(7-4)2-1-5(6)9/h4-5,7-9H,1-3H2	InChI=1S/C6H11NO2/c8-3-4-6(7-4)2-1-5(6)9/h4-5,7-9H,1-3H2/t4-,5-,6+/m1/s1
