25
gdb 118474	2.00827	1.08111	0.79512	2.0127	86.02	-0.2469	0.0738	0.3206	1587.5368	0.226042	-426.62766	-426.615947	-426.615003	-426.665636	41.961	
C	-0.7707156197	 1.4209443134	-0.9325539969	-0.386339
C	-0.7727809412	-0.0898275685	-1.0957074563	-0.043203
O	 0.5669513443	-0.5494256249	-1.0244731779	-0.271681
C	 0.7389017357	-1.9652898911	-1.1719263046	 0.091722
C	 0.8699090211	-2.2610786381	-2.6713508941	-0.074354
O	 1.9521077265	-1.5481137664	-3.2392675636	-0.42255
C	 1.9703912773	-2.3618341816	-0.3370553681	 0.049679
C	 1.7675398599	-1.9913463197	 1.1381932614	-0.39726
C	 2.3090035813	-3.8519384812	-0.4844190284	-0.408321
H	-0.3207829103	 1.7032676904	 0.0234587654	 0.128887
H	-0.1969749942	 1.895933336	-1.7338285964	 0.123772
H	-1.7934964577	 1.808141722	-0.9640690281	 0.117491
H	-1.3698241966	-0.5640053306	-0.3003569645	 0.092762
H	-1.2346492149	-0.3680901803	-2.0556094022	 0.092673
H	-0.1472413852	-2.4888203643	-0.7757850302	 0.061044
H	 1.0495212839	-3.3249787226	-2.8486149723	 0.109361
H	-0.0790780034	-2.0079614112	-3.17216131	 0.081687
H	 1.8675877073	-0.6475748386	-2.9005846307	 0.285226
H	 2.8131034957	-1.7804033668	-0.7294451608	 0.086215
H	 0.9520786899	-2.5761876574	 1.5823843214	 0.10282
H	 2.6732754348	-2.1979959271	 1.7172563135	 0.107874
H	 1.5242054867	-0.9325617335	 1.2456347592	 0.12435
H	 2.618338629	-4.1070697012	-1.5011716438	 0.12712
H	 3.1320722906	-4.1197109683	 0.1855239921	 0.113209
H	 1.4529065791	-4.4847206784	-0.2187006839	 0.107814
29.7272	60.5743	80.2935	109.8571	169.6827	204.3319	232.0457	236.1066	269.5179	296.8039	330.4165	366.8377	402.4788	447.2432	473.6956	515.6622	674.1545	818.8537	826.4723	860.8341	911.5206	926.0165	948.1749	965.3764	990.1733	1054.2579	1086.1513	1111.7958	1132.7369	1154.359	1185.6494	1187.5928	1195.6796	1229.2888	1291.678	1300.2888	1336.284	1349.4955	1366.7364	1393.5427	1398.0175	1404.1372	1417.4062	1429.1288	1442.8444	1483.7942	1488.4568	1491.9836	1499.2131	1500.6325	1510.4739	1519.95	1531.4738	2961.0666	2968.1152	2980.2246	3003.6	3024.0081	3027.2686	3043.6243	3044.2637	3087.5985	3089.3388	3095.4726	3115.4751	3117.8406	3121.269	3130.2755	3771.837
CCOC(CO)C(C)C	CCO[C@@H](CO)C(C)C	
InChI=1S/C7H16O2/c1-4-9-7(5-8)6(2)3/h6-8H,4-5H2,1-3H3	InChI=1S/C7H16O2/c1-4-9-7(5-8)6(2)3/h6-8H,4-5H2,1-3H3/t7-/m0/s1
