18
gdb 66627	2.69259	1.98517	1.51269	2.6549	74.44	-0.2124	0.0666	0.2789	925.1733	0.147826	-401.853818	-401.846466	-401.845522	-401.885015	30.123	
C	-0.0126268428	 1.5715950385	 0.0286340186	-0.525533
C	-0.0630510118	 0.0811434812	-0.0638640412	 0.281147
C	 0.6806364371	-0.8566106315	-1.0908375631	-0.120166
C	 1.7196107118	-1.0997178674	 0.0205616731	-0.187554
N	 0.6383788452	-0.779819707	 1.0241518265	-0.179808
C	-0.43033358	-1.779926635	 0.7411949932	-0.078678
C	-0.4531045166	-1.8641335014	-0.8137574468	-0.188304
C	-1.3039110951	-0.8683992499	-0.0402027771	 0.321923
O	-2.6533926024	-0.6579358474	 0.072644283	-0.45217
H	 1.0227171995	 1.9280983299	 0.0563147411	 0.127456
H	-0.5074398001	 2.0348885527	-0.8322758617	 0.116698
H	-0.51401086	 1.9153134522	 0.9389387624	 0.138922
H	 0.9244928966	-0.5882621645	-2.119296418	 0.064011
H	 2.1714303811	-2.0908713016	 0.1206277148	 0.100044
H	 2.4956406276	-0.3303799441	 0.065658854	 0.104343
H	-0.6665129872	-2.6112019239	 1.3921895709	 0.096389
H	-0.7336828313	-2.765827694	-1.3410415689	 0.091081
H	-2.9997790816	-0.4182016669	-0.7942039707	 0.290198
190.3542	197.8521	230.6913	297.6395	314.5089	353.8211	500.7684	576.8109	590.5789	620.1078	730.0432	778.6423	798.3358	829.2807	845.662	860.6473	895.7798	904.6752	928.6324	966.7678	1022.0099	1029.7988	1049.0361	1093.7789	1114.9965	1143.3714	1172.7147	1190.5902	1208.7166	1215.8552	1240.1452	1278.7828	1307.7689	1335.4084	1412.9672	1475.3758	1482.2357	1495.114	1502.0756	3029.1073	3051.5183	3095.6549	3104.7793	3107.242	3110.3999	3202.0985	3212.1693	3792.8692
CC12C3CN1C1C3C21O	C[C@@]12[C@H]3CN1[C@@H]1[C@H]3[C@]21O	
InChI=1S/C7H9NO/c1-6-3-2-8(6)5-4(3)7(5,6)9/h3-5,9H,2H2,1H3	InChI=1S/C7H9NO/c1-6-3-2-8(6)5-4(3)7(5,6)9/h3-5,9H,2H2,1H3/t3-,4-,5+,6-,7+/m0/s1
