15
gdb 132381	1.94294	1.79252	0.9336	4.0705	73.56	-0.2091	0.012	0.2212	1159.769	0.114346	-458.171169	-458.16344	-458.162496	-458.202978	30.788	
N	-0.0249581056	 1.3986997658	-0.1621831657	-0.591541
C	 0.0006458858	 0.021398927	-0.0541131348	 0.402536
C	-1.1937864114	-0.716692916	-0.0427579104	-0.393575
C	-1.0707575036	-2.0929421983	 0.0108370169	 0.348795
F	-2.1906264987	-2.8174172253	 0.0191073814	-0.082041
N	 0.0465122092	-2.7840819684	 0.052339963	-0.405624
C	 1.1855396468	-2.070758548	 0.0473542509	 0.400959
N	 2.3483508605	-2.8087399921	 0.1496696793	-0.569121
C	 1.2125705821	-0.6742723904	-0.0052366024	-0.287671
H	 0.8010115726	 1.8864407815	 0.1479367086	 0.252227
H	-0.8804013512	 1.8511409781	 0.1202999484	 0.254307
H	-2.1676691337	-0.2465426237	-0.0827374491	 0.093386
H	 2.2288362847	-3.7848789581	-0.07573933	 0.257004
H	 3.1859587838	-2.3937312014	-0.2260991407	 0.249007
H	 2.1569009588	-0.1404018408	-0.0037554854	 0.071353
198.9165	206.4455	246.3456	315.1769	335.3544	368.0242	393.9197	505.6616	518.0943	525.994	534.3129	584.0334	626.1463	666.1524	687.1595	752.6927	796.6581	821.5194	994.3995	1009.2861	1043.4917	1111.2037	1140.7189	1204.1868	1264.6796	1362.8758	1445.5275	1497.4096	1518.5209	1618.7133	1635.8627	1657.1286	1668.749	3176.7958	3210.8459	3581.7677	3583.27	3687.6415	3696.5766
NC1=CC(F)=NC(N)=C1	Nc1cc(F)nc(N)c1	
InChI=1S/C5H6FN3/c6-4-1-3(7)2-5(8)9-4/h1-2H,(H4,7,8,9)	InChI=1S/C5H6FN3/c6-4-1-3(7)2-5(8)9-4/h1-2H,(H4,7,8,9)
