15
gdb 11345	4.99034	1.36076	1.08421	7.2913	66.68	-0.2259	-0.0075	0.2184	1043.9728	0.119454	-399.851238	-399.843443	-399.842499	-399.883604	27.634	
C	 0.0884188362	 1.4328243826	 0.003238675	-0.326909
N	-0.03373674	-0.0097168497	 0.0747139024	-0.367319
C	-1.2324886064	-0.6318806613	 0.0370692945	 0.385671
C	-2.4876172412	-0.1306954346	 0.0535249278	-0.42433
C	-3.4375736451	-1.2390772025	 0.0308822025	 0.4652
O	-4.6364321688	-1.2514447206	 0.0340619196	-0.364509
O	-2.7096236411	-2.4312114546	-0.0040025693	-0.241049
C	-1.3262224762	-2.1404020004	 0.0017397397	-0.166139
H	 1.1397723775	 1.7097969896	 0.0973299223	 0.135787
H	-0.2996803906	 1.8339079076	-0.9426428736	 0.13698
H	-0.4645741315	 1.8999369078	 0.8252920259	 0.147983
H	 0.7892339362	-0.5584458909	-0.1086782006	 0.252591
H	-2.805663478	 0.8988312936	 0.0758669279	 0.112038
H	-0.8540258519	-2.5589160259	-0.8977716549	 0.124289
H	-0.8515398191	-2.5970466408	 0.8803681807	 0.129716
106.6977	124.5644	179.8623	189.4641	227.3502	297.5137	427.2435	510.4502	546.3942	645.922	707.1137	740.8616	812.1397	873.8979	930.9535	1031.0732	1052.5571	1101.3004	1147.6339	1156.9566	1178.6597	1207.5823	1287.1519	1317.1167	1373.2369	1461.4517	1480.6609	1500.7933	1514.6197	1551.6907	1691.8792	1871.4834	3009.2114	3012.696	3042.6122	3074.4129	3134.872	3266.1129	3648.1474
CNC1=CC(=O)OC1	CNC1=CC(=O)OC1	
InChI=1S/C5H7NO2/c1-6-4-2-5(7)8-3-4/h2,6H,3H2,1H3	InChI=1S/C5H7NO2/c1-6-4-2-5(7)8-3-4/h2,6H,3H2,1H3
