19
gdb 67400	2.71236	1.51588	1.27094	1.1064	87.91	-0.2244	0.0437	0.2682	1080.0014	0.158752	-348.682509	-348.674286	-348.673342	-348.714842	32.662	
C	-0.1948756353	 1.5066149768	-0.0475996822	-0.527407
C	-0.0116751459	 0.0277907764	 0.0055763146	 0.302057
C	 0.0295582971	-1.0485875779	-1.0450172051	-0.158176
C	 1.3141800738	-1.6429470933	-0.4793385323	-0.234729
C	 0.9248284261	-0.9420883589	 0.8513248801	-0.131262
C	-0.3416532397	-1.7019299738	 1.319204621	-0.29657
C	-1.0357493697	-1.1072647229	 0.0894143269	 0.206064
C	-2.4259428454	-1.0446821994	-0.1919101857	 0.111971
C	-3.6085481713	-0.9850803234	-0.4141334999	-0.390209
H	 0.7064203444	 2.0126344208	-0.4126590845	 0.121977
H	-1.0203364118	 1.7619449828	-0.7204293468	 0.134856
H	-0.4324392354	 1.9182273773	 0.9399852373	 0.124474
H	-0.2981422382	-0.9840547708	-2.0748524946	 0.092755
H	 1.4359023118	-2.7317887879	-0.4589396815	 0.092163
H	 2.193039267	-1.1823489849	-0.9396128532	 0.101548
H	 1.6843569338	-0.6331242217	 1.5662232894	 0.074273
H	-0.2750655606	-2.7923252999	 1.4071156717	 0.093262
H	-0.7602947955	-1.2822737397	 2.2374189997	 0.106166
H	-4.6500635452	-0.9391236796	-0.6132063349	 0.176789
111.8726	150.829	200.6458	211.2556	274.2141	402.0677	422.6438	502.2687	534.14	547.9447	560.8295	647.6288	661.3102	694.9869	737.8049	821.8608	896.0803	908.1881	927.0022	951.6035	991.9234	996.3102	1059.6635	1084.3487	1100.3455	1122.4832	1130.8252	1157.4342	1183.4285	1216.398	1233.1192	1259.3601	1286.7538	1325.8292	1407.8111	1449.8286	1481.8526	1489.6193	1494.9891	1509.4617	2226.6836	3022.0237	3032.2665	3038.251	3080.7139	3094.0506	3097.0996	3102.829	3139.3057	3199.2776	3504.6043
CC12C3CC1CC23C#C	C[C@@]12[C@H]3C[C@@H]1C[C@@]23C#C	
InChI=1S/C9H10/c1-3-9-5-6-4-7(9)8(6,9)2/h1,6-7H,4-5H2,2H3	InChI=1S/C9H10/c1-3-9-5-6-4-7(9)8(6,9)2/h1,6-7H,4-5H2,2H3/t6-,7-,8+,9-/m1/s1
