19
gdb 41833	2.35956	2.17225	1.90896	1.546	77.84	-0.2276	0.0091	0.2368	868.883	0.164065	-385.895429	-385.889099	-385.888155	-385.925605	27.46	
C	 0.0299557577	 1.5148683729	 0.1347691685	-0.082427
O	 1.3139734649	 2.1068384011	-0.0271463554	-0.269481
C	 2.1189870303	 1.476834921	-1.032576672	 0.040626
C	 2.5286884739	 0.0907569013	-0.5075499599	-0.222996
C	 1.2772134676	-0.7397096486	-0.3288716348	-0.061718
C	 0.0052285522	-0.0023971383	-0.0246401135	-0.072717
C	 0.2249752724	-0.595234273	-1.4218129351	-0.084865
C	 0.521492096	 0.3486136572	-2.5235985432	-0.042308
C	 1.4007377986	 1.3425122199	-2.3599444039	-0.113868
H	-0.2944214429	 1.7867208395	 1.1444215496	 0.105101
H	-0.6804818293	 1.9670022311	-0.5748419269	 0.093804
H	 2.9941568959	 2.1241497837	-1.1284988681	 0.078557
H	 3.2202410753	-0.3921245062	-1.2083184489	 0.097176
H	 3.0457849988	 0.2200429445	 0.4488526641	 0.104022
H	 1.40257312	-1.7290290197	 0.0992066213	 0.084394
H	-0.7321919777	-0.5072514548	 0.5917719726	 0.087156
H	-0.3626858282	-1.4712667159	-1.6721442965	 0.080089
H	-0.0166643796	 0.2242833895	-3.4590979417	 0.09058
H	 1.6003826943	 2.0620097248	-3.1464382259	 0.088876
220.0733	300.7885	349.3896	412.2091	421.162	519.4549	570.6118	650.5381	700.045	726.9371	772.0946	792.6857	812.8768	875.0607	897.3371	919.6834	962.0883	977.862	998.118	1001.963	1041.2153	1054.0701	1080.6204	1100.1403	1119.2479	1125.0531	1179.9448	1191.4478	1223.9397	1277.8493	1300.5055	1342.8233	1356.1103	1367.026	1381.7792	1402.6144	1417.6803	1439.7272	1476.6898	1504.4224	1687.9109	2979.9944	3031.8172	3065.377	3077.4079	3080.3695	3148.1784	3154.6721	3160.5203	3174.5605	3191.4925
C1OC2CC3C1C3C=C2	C1O[C@H]2C[C@H]3[C@@H]1[C@H]3C=C2	
InChI=1S/C8H10O/c1-2-6-7-3-5(1)9-4-8(6)7/h1-2,5-8H,3-4H2	InChI=1S/C8H10O/c1-2-6-7-3-5(1)9-4-8(6)7/h1-2,5-8H,3-4H2/t5-,6+,7-,8+/m1/s1
