15
gdb 29562	2.38149	1.83166	1.03662	6.6412	74.67	-0.1806	-0.0093	0.1713	1070.4304	0.114407	-453.994148	-453.986144	-453.9852	-454.026149	31.293	
N	 0.0176038755	 1.3846097812	 0.1392300223	-0.583121
C	-0.0512411089	 0.0010503329	 0.0506819662	 0.154974
C	-1.2109520938	-0.7180761774	 0.0318595265	-0.082125
N	-1.1806773226	-2.0877033757	-0.0076662167	-0.318965
C	-0.0028672337	-2.7770357832	-0.0166331602	-0.117057
C	 1.194644469	-2.1205219327	-0.000115884	 0.2038
O	 2.398504109	-2.7569258381	-0.0224679509	-0.420831
C	 1.2564569579	-0.6673299652	 0.0231698807	 0.298793
O	 2.3039114698	-0.0144811152	 0.0112396142	-0.423433
H	 0.9660320678	 1.6864968464	-0.0623335248	 0.261256
H	-0.6856369583	 1.901953917	-0.3662999805	 0.23963
H	-2.1939049776	-0.2646861239	 0.0501486135	 0.116133
H	-2.0466093457	-2.5971624733	-0.0150188321	 0.266658
H	-0.0810954562	-3.8579609729	-0.0416154634	 0.11236
H	 2.2582942178	-3.70894596	-0.0557382009	 0.29193
117.8853	246.6802	292.3279	304.3196	330.7862	342.6731	355.3462	377.4519	478.783	522.5543	524.9464	539.4465	578.869	696.9972	705.844	779.7966	797.1307	825.937	880.5551	1028.6188	1083.4746	1160.2793	1222.8207	1259.5606	1284.1152	1356.0351	1433.0879	1451.8511	1569.1283	1600.8681	1648.312	1677.5209	1694.8041	3189.8344	3207.146	3509.5863	3645.5421	3678.9401	3819.057
NC1=CNC=C(O)C1=O	Nc1c[nH]cc(O)c1=O	
InChI=1S/C5H6N2O2/c6-3-1-7-2-4(8)5(3)9/h1-2,8H,6H2,(H,7,9)	InChI=1S/C5H6N2O2/c6-3-1-7-2-4(8)5(3)9/h1-2,8H,6H2,(H,7,9)
