17
gdb 50860	6.21029	0.72429	0.67139	1.5393	73.05	-0.247	-0.0235	0.2235	1636.3188	0.134384	-455.135844	-455.126698	-455.125753	-455.171233	31.632	
N	-0.1867495193	 1.2544999266	-0.040581131	-0.41866
C	-0.0288761124	 0.0101581007	 0.0462696962	 0.117133
O	-1.1310584804	-0.7903057762	-0.1283943226	-0.207334
C	-0.9654660605	-2.1521357788	-0.0203210436	 0.470026
O	 0.0785616075	-2.6908249289	 0.2091177539	-0.322179
C	-2.3131004148	-2.8215688599	-0.2033148694	-0.287839
N	-2.1699530557	-4.2485511984	-0.378479612	-0.053698
C	-2.0471385985	-5.0428690792	 0.8384222069	-0.205504
C	-3.3045063446	-5.0671789597	 0.0421787681	-0.223833
H	 0.7049987091	 1.7253947424	 0.1065745188	 0.240587
H	 0.8801745096	-0.557831017	 0.2446873551	 0.144446
H	-2.9307178852	-2.533214795	 0.6695723092	 0.120143
H	-2.80011204	-2.3833049053	-1.0810591516	 0.148298
H	-1.3406521723	-5.8650019329	 0.7895217376	 0.128072
H	-2.0723884804	-4.5212086629	 1.7937043699	 0.113035
H	-4.1728797846	-4.5628117406	 0.4634384467	 0.112711
H	-3.5367118874	-5.9088503948	-0.6031429923	 0.124597
41.4488	74.888	110.7723	121.1646	148.5756	248.2761	322.8316	375.8506	410.6094	531.7813	583.4605	744.408	779.8787	843.6154	853.5933	908.9817	947.2648	1008.6783	1012.0256	1042.7023	1069.5919	1073.3118	1117.6592	1121.6685	1163.9813	1174.6394	1185.3417	1265.2255	1267.8205	1337.0112	1385.0879	1399.9247	1460.3012	1494.7942	1524.0173	1747.2633	1857.5704	2923.2243	3073.4022	3097.901	3104.7445	3139.3906	3185.5977	3200.8677	3506.6902
N=COC(=O)CN1CC1	[NH][CH]OC(=O)CN1CC1	
InChI=1S/C5H8N2O2/c6-4-9-5(8)3-7-1-2-7/h4,6H,1-3H2	InChI=1S/C5H8N2O2/c6-4-9-5(8)3-7-1-2-7/h4,6H,1-3H2
