19
gdb 110845	2.61778	1.48656	1.24557	1.5033	75.33	-0.207	0.0173	0.2243	1103.0414	0.159761	-419.196383	-419.187715	-419.186771	-419.229789	32.306	
C	 0.2594695972	 0.9197130733	-0.5008846743	-0.314639
N	-0.2025875387	 0.0220776086	 0.5513096896	-0.290485
C	-1.4504470292	-0.6198130106	 0.3016656989	-0.02791
C	-1.7152118968	-1.583064756	-0.8437875893	 0.019185
O	-0.5715323093	-2.156897984	-1.4596886762	-0.236095
C	 0.0637327227	-2.8733739509	-0.4859768965	 0.380561
C	 1.3320539385	-3.5332099911	-0.9020103658	-0.479609
N	-0.4838887169	-2.9181984993	 0.667964726	-0.304992
C	-1.6654672554	-2.0923816459	 0.5951238061	-0.079703
H	 1.2335288524	 1.3307433287	-0.2195297572	 0.116371
H	 0.3509797924	 0.4451797797	-1.4904723594	 0.109748
H	-0.4359302032	 1.761642758	-0.5964083109	 0.118906
H	 0.504893176	-0.6539865637	 0.8090764085	 0.230532
H	-2.3231018071	-0.0093981829	 0.5329483399	 0.098627
H	-2.5709465608	-1.5252103511	-1.5046148505	 0.1074
H	 2.0873547714	-2.7859800414	-1.1656701492	 0.146408
H	 1.7050485278	-4.1507876826	-0.0856141773	 0.155641
H	 1.1632039829	-4.1517052667	-1.7887653541	 0.148204
H	-2.5156588239	-2.4117299123	 1.1857730516	 0.101847
85.1796	131.3172	155.4968	166.0302	205.5383	297.8692	315.4705	354.2848	548.136	630.8629	643.5946	665.5097	718.0163	761.7029	782.4943	812.9878	912.2559	950.5542	986.2613	998.2288	1055.6413	1067.3834	1072.1025	1095.5522	1114.6607	1138.4863	1151.979	1187.4962	1248.4601	1282.6721	1328.6537	1354.0472	1378.4362	1413.2928	1457.126	1474.0958	1477.6457	1482.6991	1496.5071	1522.6532	1700.1634	2982.1347	3050.8325	3057.084	3101.9059	3106.6916	3107.9091	3165.4561	3178.1434	3192.2424	3562.9495
CNC1C2OC(C)=NC12	CN[C@H]1[C@H]2OC(=N[C@@H]12)C	
InChI=1S/C6H10N2O/c1-3-8-5-4(7-2)6(5)9-3/h4-7H,1-2H3	InChI=1S/C6H10N2O/c1-3-8-5-4(7-2)6(5)9-3/h4-7H,1-2H3/t4-,5+,6-/m1/s1
