21
gdb 79140	2.36234	1.91703	1.45234	1.4432	80.79	-0.222	0.0844	0.3064	1012.0203	0.18389	-387.064923	-387.057123	-387.056179	-387.096623	32.004	
C	-0.0968470607	 1.5953299946	-0.0641997016	-0.421157
C	 0.0410581503	 0.0759148972	-0.0652485254	 0.034966
C	 0.6663771224	-0.604216938	-1.2840856284	-0.116972
C	 2.1768263325	-0.6301937978	-1.1369465258	 0.108068
O	 2.8085455804	 0.3061313903	-0.286250915	-0.286095
C	 2.4102036621	-0.0433974767	 1.055693088	 0.160766
C	 2.5038445329	 1.1671298704	 1.9697987717	-0.419278
C	 1.0565547742	-0.7310273449	 0.8430498118	-0.118213
C	 1.3656701858	-1.6298140198	-0.3877720781	-0.128277
H	 0.8436754242	 2.0854560965	-0.3220479405	 0.138053
H	-0.8427839281	 1.89241992	-0.811059587	 0.10641
H	-0.4406567838	 1.9750758407	 0.9044178707	 0.108547
H	-0.9452128324	-0.3700793182	 0.1076565331	 0.073797
H	 0.1864343447	-0.7598739447	-2.2448937624	 0.076784
H	 2.774845935	-0.9106395041	-1.9960589619	 0.097702
H	 3.1102358952	-0.8094672061	 1.4351199934	 0.06538
H	 1.8162728089	 1.9633513055	 1.6856018982	 0.12776
H	 2.2827662731	 0.8680465443	 2.999679557	 0.112283
H	 3.521222272	 1.5688506309	 1.9475037589	 0.126117
H	 0.6411612781	-1.1914473827	 1.7396476236	 0.066905
H	 1.4323915231	-2.7082611075	-0.4387242302	 0.086453
152.9289	198.4958	211.7051	267.4587	304.085	312.3404	416.348	529.136	550.2117	610.3712	696.6516	754.182	761.2417	802.7611	819.2355	855.6848	895.7879	917.9808	939.9319	999.1188	1003.9071	1028.6518	1041.075	1057.8363	1088.0352	1104.9058	1106.6869	1132.5606	1153.5014	1163.8322	1189.3577	1229.6459	1253.18	1298.1112	1325.8321	1354.8829	1377.1427	1401.423	1403.4909	1409.6367	1414.693	1485.6042	1492.3525	1504.8407	1516.3632	2934.0967	3025.959	3033.7002	3049.0438	3082.5431	3109.0626	3112.5439	3133.7824	3157.8214	3159.6478	3185.0544	3201.8094
CC1C2C3OC(C)C1C23	C[C@H]1[C@H]2[C@H]3O[C@@H](C)[C@@H]1[C@@H]23	
InChI=1S/C8H12O/c1-3-5-4(2)9-8-6(3)7(5)8/h3-8H,1-2H3	InChI=1S/C8H12O/c1-3-5-4(2)9-8-6(3)7(5)8/h3-8H,1-2H3/t3-,4+,5-,6-,7+,8-/m1/s1
