15
gdb 44627	4.41486	1.41974	1.3681	3.6667	64.29	-0.2561	0.0032	0.2593	930.5905	0.115364	-457.77287	-457.766904	-457.76596	-457.803155	24.375	
O	-0.0073116096	 0.0525324328	-0.0232137566	-0.344183
C	 0.0512568519	 1.2435493098	-0.0070988443	 0.452407
O	-1.0522625968	 2.0729846221	 0.0042988075	-0.240844
C	-0.4573228814	 3.3786088832	 0.0454857446	 0.068863
C	 0.7365642254	 3.3502747357	-0.9586182916	-0.095464
C	 1.5699036118	 4.5514104501	-0.5357268395	-0.107089
O	 1.5032504027	 4.4330922561	 0.9053179602	-0.272484
C	 0.7060158259	 3.2858392418	 1.0736440244	 0.105646
C	 1.2075745002	 2.2112052292	 0.0273655747	-0.234967
H	-1.2200100593	 4.1538775803	 0.0611036545	 0.107429
H	 0.5863069383	 3.1587435828	-2.0202218053	 0.101325
H	 2.6132001903	 4.5054776208	-0.8658535973	 0.12148
H	 1.1369936883	 5.5075913674	-0.850798562	 0.119537
H	 0.5537442064	 3.0564662933	 2.1267947396	 0.113458
H	 2.2143260658	 1.8028537546	 0.0344110209	 0.104886
170.0275	298.9228	347.2847	387.5407	484.8146	579.1302	677.8077	691.6083	713.6089	836.0164	858.1648	912.0214	925.0648	946.7353	966.3976	979.0062	996.423	1019.4373	1056.323	1066.6369	1106.2907	1146.0904	1162.2935	1197.0231	1199.3262	1212.7493	1249.7217	1272.2129	1290.5576	1337.0585	1389.0382	1522.6066	1913.75	3035.8157	3078.7874	3136.6758	3147.9748	3158.1973	3169.9893
O=C1OC2C3COC2C13	O=C1O[C@@H]2[C@H]3CO[C@@H]2[C@@H]13	
InChI=1S/C6H6O3/c7-6-3-2-1-8-5(3)4(2)9-6/h2-5H,1H2	InChI=1S/C6H6O3/c7-6-3-2-1-8-5(3)4(2)9-6/h2-5H,1H2/t2-,3-,4+,5+/m0/s1
