18
gdb 77544	2.95813	1.30103	1.06899	4.1056	78.04	-0.2786	0.0257	0.3043	1148.2507	0.147377	-401.920838	-401.912302	-401.911358	-401.953659	32.823	
C	-0.1418523441	 1.5790078827	-0.0325164995	-0.450206
C	 0.0303415696	 0.0711381978	-0.008287868	-0.021535
C	 1.2020628878	-0.6445176092	-0.738646356	 0.369516
O	 1.3659323402	-0.5829172158	-2.1026826521	-0.465925
C	 2.1774108923	-0.1565263162	 0.3830536385	-0.337276
C	 0.883522119	-0.6555584984	 1.1002017612	 0.21668
C	 0.9133733229	-1.8961412856	 0.1537939588	-0.325618
C	 0.6325324994	-0.6597416162	 2.5134835555	 0.164341
N	 0.4233077388	-0.6532811373	 3.6512573735	-0.35865
H	 0.7875878685	 2.1309464468	 0.1231230941	 0.124973
H	-0.5503449651	 1.8855730671	-1.0007601328	 0.135839
H	-0.8503997168	 1.8922100582	 0.7408856142	 0.134811
H	-0.9343216532	-0.4211445407	-0.1703961428	 0.084808
H	 2.1532498803	-1.0805947858	-2.349007909	 0.289597
H	 3.0699435473	-0.7632692462	 0.5545312438	 0.105131
H	 2.4019009451	 0.9072831524	 0.4436318359	 0.116309
H	-0.0391594467	-2.4066822344	-0.002155696	 0.113109
H	 1.7376336046	-2.5946037793	 0.3159783006	 0.104097
121.5895	144.4413	166.6585	206.1675	262.0153	320.0877	392.0287	398.8209	518.2592	534.9109	546.9613	559.2583	608.5462	654.5692	764.5841	808.4795	816.6829	975.0897	984.8315	1006.8154	1063.1609	1073.8027	1104.1273	1121.8758	1136.1319	1143.7432	1147.9676	1160.9529	1182.8063	1270.962	1315.8933	1376.6917	1411.1388	1428.8987	1487.5767	1492.9945	1510.3699	1550.0697	2350.6017	3044.3125	3053.1249	3063.3634	3076.1347	3105.964	3125.3057	3137.4563	3155.5859	3809.3594
CC1C2(O)CC1(C2)C#N	C[C@H]1[C@@]2(O)C[C@@]1(C2)C#N	
InChI=1S/C7H9NO/c1-5-6(4-8)2-7(5,9)3-6/h5,9H,2-3H2,1H3	InChI=1S/C7H9NO/c1-5-6(4-8)2-7(5,9)3-6/h5,9H,2-3H2,1H3/t5-,6-,7-/m1/s1
