16
gdb 30536	6.47302	0.8425	0.74903	2.3813	83.89	-0.192	-0.0114	0.1805	1480.4663	0.124668	-434.121863	-434.11294	-434.111996	-434.156119	31.33	
C	 0.181224286	 1.4462172666	 0.0833222021	-0.493977
C	-0.0401656795	-0.0163053407	-0.0225736125	 0.318779
C	-1.1163239741	-0.8137493701	-0.2308297629	-0.197618
N	-0.7268978541	-2.1442046346	-0.236206881	-0.348346
C	 0.5611328664	-2.1025347454	-0.0309764417	 0.456388
O	 1.0506561481	-0.8419894027	 0.107776287	-0.215152
N	 1.4912570803	-3.1014411513	 0.0671629335	-0.36231
C	 1.0604337629	-4.3093233628	-0.0292408326	 0.134537
N	 1.9011585368	-5.3654325066	 0.014860633	-0.493782
H	 0.8736603464	 1.8084371152	-0.6855441374	 0.137355
H	-0.769327832	 1.9708127294	-0.0399348198	 0.135084
H	 0.6007323583	 1.7234646697	 1.0574830235	 0.137065
H	-2.1447683465	-0.5214545472	-0.3788214658	 0.109972
H	 0.0055068585	-4.5586813063	-0.1719812242	 0.141372
H	 2.8731735752	-5.2037297174	 0.2245712817	 0.270709
H	 1.5448929873	-6.3013189256	 0.079466977	 0.269924
50.1248	127.5819	143.3391	153.4999	187.6728	239.4664	295.2024	379.2171	428.9581	508.7916	611.9132	640.4642	675.6116	769.3606	806.8479	843.1932	974.8126	994.4333	1033.2361	1037.8346	1066.9208	1104.4157	1175.5893	1244.097	1264.1815	1311.8045	1346.4353	1417.8211	1428.8441	1471.2114	1494.4136	1569.8607	1625.4696	1646.426	1719.8528	3025.98	3074.735	3101.5559	3123.6773	3250.6546	3608.575	3748.8717
CC1=CN=C(O1)N=CN	Cc1cnc(o1)N=CN	
InChI=1S/C5H7N3O/c1-4-2-7-5(9-4)8-3-6/h2-3H,1H3,(H2,6,7,8)	InChI=1S/C5H7N3O/c1-4-2-7-5(9-4)8-3-6/h2-3H,1H3,(H2,6,7,8)
