16
gdb 49152	4.0169	1.37737	1.1858	2.3119	77.34	-0.2419	-0.0661	0.1759	1021.3589	0.125893	-400.713663	-400.706943	-400.705999	-400.744927	26.551	
O	-0.0390434563	-0.0348448594	-0.1047371583	-0.280152
C	 0.0124118147	 1.1754339081	-0.0385826502	 0.063977
C	 1.2481046909	 1.9413226823	 0.0782008279	 0.220793
C	 1.361024238	 3.2859531939	 0.0199223281	-0.159076
C	 2.7824454999	 3.6685263131	 0.0965962094	-0.059245
C	 3.5585155296	 2.4931792875	 0.5725672018	-0.048754
C	 2.6314174718	 1.3414050177	 0.0831527212	-0.17909
C	 3.2385255793	 1.6915831303	-1.3214116415	-0.145193
N	 3.8140812829	 2.9699682754	-0.8160164431	-0.151494
H	-0.9129943973	 1.7934943475	-0.0479840426	 0.069532
H	 0.5476318208	 3.9908378067	-0.1048315988	 0.119729
H	 3.0965107466	 4.6822003148	 0.3087037998	 0.108629
H	 4.3111901793	 2.4937034231	 1.3541933364	 0.102956
H	 2.722323499	 0.3247976232	 0.4548436308	 0.10045
H	 4.080248176	 1.0429828232	-1.5727072238	 0.126574
H	 2.5537131546	 1.7703828027	-2.171021287	 0.110365
101.1078	178.0675	242.0202	372.4948	450.9426	505.3163	568.0802	650.3249	693.2876	774.6846	799.4666	811.5284	849.5086	864.8605	901.986	922.3467	983.2347	987.371	1012.0194	1037.6561	1066.87	1083.331	1164.8323	1167.619	1202.5471	1214.2246	1246.2808	1271.8586	1289.6684	1350.1415	1366.9379	1418.8909	1494.1094	1641.6075	1773.0204	2881.76	3055.2758	3121.7276	3159.4164	3168.6459	3201.6735	3213.7908
O=CC1=CC2C3C1CN23	O=CC1=C[C@H]2[C@H]3[C@@H]1CN23	
InChI=1S/C7H7NO/c9-3-4-1-6-7-5(4)2-8(6)7/h1,3,5-7H,2H2	InChI=1S/C7H7NO/c9-3-4-1-6-7-5(4)2-8(6)7/h1,3,5-7H,2H2/t5-,6+,7-,8?/m1/s1
