19
gdb 79147	2.47561	1.93529	1.50478	2.7962	72.86	-0.238	0.0598	0.2977	941.9488	0.161691	-423.002472	-422.995171	-422.994227	-423.03374	30.395	
O	 0.0666961637	 1.4298179965	 0.2134389658	-0.460321
C	-0.0339525346	 0.042479139	 0.0010707051	 0.157629
C	-1.4166787066	-0.6096003036	-0.0115161795	-0.095305
C	-2.1014078927	-0.4448923278	-1.3534129959	-0.04257
C	-1.6714018468	 0.6994214254	-2.2671448589	-0.281412
C	-0.1704124889	 0.4023812239	-2.5366526809	 0.118933
O	 0.6874864053	 1.5481028122	-2.4987943657	-0.441495
C	 0.2345807704	-0.566042483	-1.4191795901	-0.121929
C	-1.004444539	-1.4678111199	-1.2034084362	-0.093808
H	 0.4300261495	 1.8152028884	-0.5957632018	 0.288721
H	 0.5928204131	-0.4840979351	 0.7331620216	 0.072478
H	-1.9799735955	-0.9032718797	 0.8666075382	 0.081854
H	-3.1279493949	-0.7924840788	-1.3885560422	 0.084013
H	-2.253047881	 0.711466461	-3.1944817061	 0.092423
H	-1.7813360307	 1.6738989017	-1.781475113	 0.112853
H	-0.059019709	-0.1012090931	-3.5081331672	 0.077295
H	 0.3530758249	 2.2002636271	-3.1225189149	 0.291622
H	 1.2126209475	-1.0216043234	-1.5695095644	 0.071968
H	-1.0886816248	-2.5340252908	-1.3603856039	 0.087053
133.455	213.8573	291.9804	308.8241	366.9001	434.2339	463.2709	524.9257	572.0836	615.4198	685.5206	763.8131	787.3333	806.1961	821.5517	882.5133	922.2047	963.1362	982.243	1005.3277	1020.334	1043.6103	1062.4872	1075.9704	1093.8508	1103.4743	1148.0151	1148.5065	1218.1508	1230.2952	1244.3569	1256.1055	1293.5637	1303.454	1331.241	1361.4643	1372.0916	1414.9646	1419.2136	1437.2594	1490.6171	2987.8136	3009.5938	3045.1998	3090.9138	3119.3774	3170.4162	3179.488	3210.7011	3724.6136	3822.3577
OC1C2C3CC(O)C1C23	O[C@H]1[C@H]2[C@H]3C[C@@H](O)[C@@H]1[C@@H]23	
InChI=1S/C7H10O2/c8-3-1-2-4-5(2)7(9)6(3)4/h2-9H,1H2	InChI=1S/C7H10O2/c8-3-1-2-4-5(2)7(9)6(3)4/h2-9H,1H2/t2-,3+,4+,5-,6+,7-/m0/s1
