18
gdb 69750	2.96988	1.51667	1.28081	1.2974	75.56	-0.2301	-0.0302	0.1999	1038.3769	0.147	-401.898651	-401.890885	-401.889941	-401.930696	30.653	
C	 0.1102254972	 1.5410874097	 0.0893149735	-0.491687
C	-0.0626387101	 0.0567477657	-0.0353431988	 0.355976
C	-0.9839106016	-0.7429305946	 0.7926448473	-0.305813
N	 0.4723092804	-0.9281685273	 0.9961455529	-0.180612
C	 1.0269976947	-1.7643124364	-0.1451639843	 0.025081
C	 0.1742969687	-2.89998788	-0.7740971913	-0.375876
C	-0.3635722717	-1.8681274014	-1.7990099248	 0.391428
O	-1.1431352055	-1.9272508482	-2.7033003303	-0.294177
C	 0.5339707235	-0.756176038	-1.215845467	-0.226186
H	 1.1415917054	 1.8399013131	-0.1265501052	 0.125031
H	-0.5488084979	 2.0669036884	-0.6112801976	 0.130551
H	-0.1350374314	 1.8711329053	 1.1029803387	 0.131953
H	-1.4437005552	-0.2378744944	 1.637248613	 0.124286
H	-1.5980557747	-1.5351469162	 0.3760530961	 0.126312
H	 2.0806962921	-1.974759545	 0.0248305307	 0.093287
H	 0.8035503103	-3.6428191965	-1.2775850938	 0.138061
H	-0.5544917543	-3.4318282779	-0.1575435615	 0.137696
H	 1.1844370903	-0.2023803164	-1.8919285876	 0.094688
111.1402	150.6807	193.8603	271.0871	346.9407	387.8987	442.5316	479.4615	526.7022	596.0911	661.7428	715.5242	739.3984	827.9255	864.9838	871.0038	905.0015	954.9343	971.356	997.2796	1036.3911	1054.2188	1093.6633	1107.5068	1121.2065	1139.6449	1152.8291	1169.1725	1228.0271	1232.4606	1276.9976	1305.2437	1382.8172	1418.4863	1427.9404	1480.271	1491.6648	1521.4919	1888.5153	3028.6913	3052.0922	3092.6507	3111.7161	3112.0545	3122.6554	3124.0258	3136.0584	3201.48
CC12CN1C1CC(=O)C21	C[C@]12CN1[C@H]1CC(=O)[C@@H]21	
InChI=1S/C7H9NO/c1-7-3-8(7)4-2-5(9)6(4)7/h4,6H,2-3H2,1H3	InChI=1S/C7H9NO/c1-7-3-8(7)4-2-5(9)6(4)7/h4,6H,2-3H2,1H3/t4-,6-,7+,8?/m0/s1
