14
gdb 30474	5.26775	0.95759	0.81437	4.7374	72.37	-0.2373	-0.073	0.1643	1334.9512	0.099363	-473.839334	-473.831012	-473.830068	-473.8732	28.637	
C	 0.0386778181	 1.4105178793	 0.089147696	-0.335844
N	 0.2073943633	-0.0301985043	 0.0735041083	-0.345601
C	 0.636092268	-0.6107972901	-0.9381963301	 0.529693
O	 1.0111212212	-0.0421199358	-2.1646937113	-0.212478
C	 1.4121238788	-1.0665090102	-2.9601362602	-0.090081
C	 1.3056393057	-2.2263968168	-2.2944027972	 0.211804
O	 0.8221519514	-1.9618307859	-1.0291878573	-0.23202
C	 1.6144989477	-3.5803478291	-2.7266135007	 0.069527
O	 1.4854049976	-4.5731277237	-2.0509815192	-0.261802
H	 0.6393553219	 1.8317228061	 0.9023621396	 0.137056
H	 0.3186598994	 1.9085520867	-0.846523207	 0.123641
H	-1.0079140245	 1.6452971646	 0.3104412397	 0.137051
H	 1.7424440811	-0.8290766812	-3.9576227432	 0.182707
H	 1.9926490003	-3.6134702897	-3.7713088873	 0.086347
62.4771	93.5748	141.9698	160.2482	228.8513	249.8393	352.8736	492.6395	514.5839	592.7226	705.3994	714.8002	784.3768	807.6464	841.2785	965.0755	1006.1811	1051.8252	1118.0106	1138.8793	1147.9135	1201.0398	1299.6318	1355.0979	1423.4445	1448.6092	1493.0618	1502.7288	1680.2343	1794.6518	1864.7387	2897.5945	3019.338	3087.4127	3088.3639	3287.987
CN=C1OC=C(O1)C=O	CN=c1occ(o1)C=O	
InChI=1S/C5H5NO3/c1-6-5-8-3-4(2-7)9-5/h2-3H,1H3	InChI=1S/C5H5NO3/c1-6-5-8-3-4(2-7)9-5/h2-3H,1H3
