14
gdb 13747	3.36767	1.76331	1.34882	3.5054	64.78	-0.2498	0.0261	0.276	905.3434	0.106117	-378.69123	-378.683265	-378.68232	-378.723705	29.188	
N	-0.1560801567	 1.1467693309	-0.2464880787	-0.536559
C	-0.0880896886	-0.2169913611	-0.0497567963	 0.422045
O	 0.864103016	-0.8969726743	-0.3518490802	-0.360345
N	-1.2368755636	-0.730844881	 0.5867240539	-0.124268
C	-2.5908755171	-0.5472492295	 0.1050784331	-0.254419
C	-1.9450584418	-1.912815038	 0.1128432304	-0.183925
C	-1.6153333305	-2.5442222791	-1.1360234131	 0.363193
C	-1.3772470556	-3.1042845953	-2.1718598098	-0.452097
H	 0.7337740547	 1.5833179318	-0.4305130498	 0.265022
H	-0.7985487999	 1.6809696336	 0.316813766	 0.259136
H	-3.3391892326	-0.3031154519	 0.854979448	 0.126902
H	-2.7282193807	-0.0831975596	-0.8681005444	 0.143444
H	-2.2214514066	-2.5982024376	 0.9108780125	 0.127004
H	-1.1401071469	-3.5913485188	-3.0852567916	 0.204868
67.5894	112.3013	192.9277	242.8362	255.8678	427.4209	456.5922	499.4911	519.6382	539.3089	616.6133	657.0351	671.0279	727.5136	785.286	816.527	950.4382	1009.3754	1050.5067	1107.0166	1117.654	1124.5231	1161.976	1277.9881	1370.031	1401.6584	1504.936	1617.8563	1822.2002	2244.8672	3103.9777	3132.3697	3198.57	3504.2489	3585.2416	3706.6753
NC(=O)N1CC1C#C	NC(=O)N1C[C@H]1C#C	
InChI=1S/C5H6N2O/c1-2-4-3-7(4)5(6)8/h1,4H,3H2,(H2,6,8)	InChI=1S/C5H6N2O/c1-2-4-3-7(4)5(6)8/h1,4H,3H2,(H2,6,8)/t4-,7?/m1/s1
