16
gdb 105610	2.111	1.42363	1.21461	2.7015	66.52	-0.2657	-0.0406	0.2251	1098.7688	0.122534	-475.014845	-475.005829	-475.004885	-475.049222	31.669	
O	 0.6039341217	 0.9055383739	-0.739326723	-0.407777
C	-0.0640173557	 0.5053404282	 0.4424695912	-0.134263
C	-1.3677673331	-0.2437124831	 0.1481335244	 0.010701
C	-1.3059119242	-1.7497334085	-0.1750383525	-0.132209
O	-2.0401023362	-2.0510905317	 1.0593158276	-0.253922
C	-2.1102288743	-0.7215910431	 1.3934204655	 0.409783
N	-2.5995447974	-0.1283290995	 2.3815894928	-0.542732
C	-2.2481293606	 0.5791782965	-0.7820992909	 0.137952
O	-2.7733124889	 0.1467348956	-1.7729276024	-0.246832
H	 0.9265956259	 0.1203157407	-1.1934322341	 0.291968
H	 0.5746404851	-0.1042046592	 1.0975356772	 0.109342
H	-0.3035971689	 1.4245210838	 0.9859470246	 0.145555
H	-1.8706757052	-2.0557702657	-1.0558876756	 0.152859
H	-0.3146804623	-2.2103703302	-0.1541907865	 0.115186
H	-3.0222667403	-0.7779993817	 3.0466323894	 0.237109
H	-2.3815288656	 1.6319161542	-0.4576144976	 0.107282
75.0009	89.6569	124.7498	142.2811	213.3358	264.3276	299.9889	337.4212	363.4257	549.6288	584.0547	654.532	676.8504	808.1948	862.1186	897.806	949.8879	963.2727	969.5407	1013.8163	1065.3046	1086.3682	1147.2696	1165.0779	1212.3022	1228.224	1293.6021	1356.6142	1384.4237	1399.4431	1422.3946	1496.5468	1510.4083	1808.5702	1837.78	2924.2295	3006.1174	3066.5848	3090.4658	3146.4743	3481.7815	3816.2249
OCC1(COC1=N)C=O	OC[C@]1(CO[C]1[NH])C=O	
InChI=1S/C5H7NO3/c6-4-5(1-7,2-8)3-9-4/h1,6,8H,2-3H2	InChI=1S/C5H7NO3/c6-4-5(1-7,2-8)3-9-4/h1,6,8H,2-3H2/t5-/m0/s1
