18
gdb 38880	2.78383	2.1729	1.92671	2.7811	68.23	-0.219	0.0746	0.2937	816.7283	0.153199	-439.072431	-439.066726	-439.065782	-439.102115	25.407	
C	-0.0594572206	 1.5419024614	 0.0046079925	-0.216321
C	 1.4786929033	 1.7694456915	-0.0417554874	-0.085613
N	 1.9480133354	 1.7587081537	-1.4323191711	-0.278233
C	 1.2962923407	 0.64339925	-2.1562708602	-0.182189
C	 1.0617816799	-0.4443589775	-1.1003854496	 0.051447
O	 2.294094141	-0.5011628758	-0.363428108	-0.237447
C	 1.9867178415	 0.4239490037	 0.6564756322	 0.202263
O	 0.8163099743	-0.1351601299	 1.2265615392	-0.249859
C	 0.0276647305	 0.0114306024	 0.033519397	 0.0364
H	-0.5386422515	 1.8931759925	 0.9206830363	 0.107462
H	-0.5657080554	 1.982909782	-0.8569238553	 0.093106
H	 1.8347817237	 2.6663732073	 0.4654713108	 0.075933
H	 1.7342773938	 2.64404933	-1.8766935194	 0.218905
H	 0.350922522	 0.9162332089	-2.6506820835	 0.08563
H	 1.9744214015	 0.2657510541	-2.9291441588	 0.112146
H	 0.8416045352	-1.423725991	-1.5264367921	 0.08655
H	 2.7996167604	 0.4927665056	 1.3762051279	 0.096041
H	-0.8901416458	-0.5701417091	 0.1015071194	 0.083779
320.0996	329.5884	422.8539	496.5667	541.5121	601.7449	618.5838	687.0308	748.7217	770.323	797.9399	857.5438	887.4756	907.7493	922.1831	939.2137	970.3941	978.168	991.8866	1036.0585	1048.2846	1068.173	1094.0966	1105.4385	1169.4768	1192.4978	1224.0261	1243.2768	1250.2778	1276.4207	1302.4624	1307.0558	1325.8593	1331.4142	1356.3292	1394.375	1449.9978	1487.2215	1520.2054	2977.3602	3055.9182	3070.3559	3107.9248	3109.6844	3121.5919	3138.5812	3156.087	3536.7247
C1C2NCC3OC2OC13	C1[C@@H]2NC[C@H]3O[C@@H]2O[C@@H]13	
InChI=1S/C6H9NO2/c1-3-6-8-4(1)5(9-6)2-7-3/h3-7H,1-2H2	InChI=1S/C6H9NO2/c1-3-6-8-4(1)5(9-6)2-7-3/h3-7H,1-2H2/t3-,4-,5+,6-/m0/s1
