21
gdb 122350	3.22681	0.82478	0.78628	1.6027	75.52	-0.2286	0.0605	0.2891	1582.7415	0.180433	-461.326509	-461.316331	-461.315387	-461.36245	36.925	
C	 0.2859119409	 1.0823773014	 0.3895791928	-0.382842
C	-0.2104381319	-0.1742283641	-0.3301746172	-0.185915
C	 0.8359376249	-0.7470640946	-1.2735261061	-0.042916
O	 0.2781660631	-1.8959596399	-1.9192158397	-0.274594
C	 1.1513490968	-2.551449892	-2.7788065078	 0.007909
C	 2.2610125629	-3.4208881838	-2.1916148442	 0.056203
O	 2.4267357248	-3.4727970143	-0.8122995699	-0.424592
C	 0.9982846599	-4.0539792055	-2.7413377872	 0.01605
O	 0.1371833214	-4.5599522831	-1.7593604216	-0.434072
H	 1.1818542523	 0.873714062	 0.9841962123	 0.121878
H	 0.5375977573	 1.8767936285	-0.3216118011	 0.117496
H	-0.4784344534	 1.4738192018	 1.0667645246	 0.118605
H	-0.4817324541	-0.9453260495	 0.4006487736	 0.103349
H	-1.1178977216	 0.0488162126	-0.9032868688	 0.105683
H	 1.1156654928	-0.0027393874	-2.0355117934	 0.088121
H	 1.7421235222	-1.0400979418	-0.7309201719	 0.125141
H	 1.3269616741	-2.0577524134	-3.7353308514	 0.08973
H	 3.1909747378	-3.5056904824	-2.7475653137	 0.099559
H	 1.7291020207	-4.0666852841	-0.4933319139	 0.290018
H	 1.007106834	-4.637808405	-3.6565349763	 0.102952
H	-0.4146840551	-3.8136400356	-1.481429439	 0.302234
50.6563	67.9122	99.7478	155.8294	204.7651	227.2757	238.0812	294.1217	349.1685	362.3745	391.0002	574.8466	616.527	667.401	717.0848	754.4736	767.5853	787.7589	902.2986	913.8357	947.7061	1022.7011	1049.5655	1064.4829	1079.5183	1104.0773	1144.339	1156.5315	1171.0373	1191.1338	1237.6395	1268.3595	1316.7958	1324.5592	1331.2506	1345.9714	1372.6485	1399.9232	1413.2362	1437.9876	1453.5401	1492.8188	1500.5692	1508.151	1523.1944	2983.5977	3032.8708	3035.597	3056.4814	3075.6424	3092.7198	3102.0913	3110.2084	3141.694	3156.5665	3691.0159	3722.0704
CCCOC1C(O)C1O	CCCO[C@H]1[C@@H](O)[C@H]1O	
InChI=1S/C6H12O3/c1-2-3-9-6-4(7)5(6)8/h4-8H,2-3H2,1H3	InChI=1S/C6H12O3/c1-2-3-9-6-4(7)5(6)8/h4-8H,2-3H2,1H3/t4-,5+,6-
