15
gdb 8253	6.75327	1.08351	0.96577	2.3087	68.18	-0.2387	-0.0278	0.211	1139.7703	0.116367	-362.608273	-362.600384	-362.59944	-362.64096	28.602	
O	-0.0506269165	-0.0234892488	-0.0707289186	-0.276309
C	-0.0437412519	 1.1603157567	 0.0722876841	 0.394826
C	-1.1183089052	 2.2541562577	 0.179961952	-0.287173
N	-0.0466186267	 3.1806067092	 0.6158499897	-0.08322
C	-0.0331785531	 4.5005362986	 0.0025907148	-0.314847
C	 1.119085659	 5.2893707002	 0.427704996	 0.305888
C	 2.0793795256	 5.9302018704	 0.7592735485	-0.423507
C	 1.0368956285	 2.2373594224	 0.2446141442	-0.286164
H	-1.5499400808	 2.4852561173	-0.8089005178	 0.116875
H	-1.9310256956	 2.1023643735	 0.8974266728	 0.136931
H	-0.0378822011	 4.4423674908	-1.1054980921	 0.108574
H	-0.9574022797	 5.0182495693	 0.2884947503	 0.141069
H	 2.9228839784	 6.5013868977	 1.0595236332	 0.202118
H	 1.801113641	 2.0755698754	 1.0102180073	 0.141845
H	 1.5336806581	 2.4640622397	-0.7131714244	 0.123093
67.6412	89.5636	150.4346	292.7191	324.4154	344.1232	427.7199	455.2113	500.1075	619.6421	666.4427	682.6264	761.6678	776.7083	942.5153	962.9601	990.5	1047.2222	1064.4264	1095.0528	1108.7014	1159.8783	1205.5903	1239.5642	1277.0741	1303.2868	1387.4845	1457.3187	1473.6565	1490.2146	1923.7985	2244.5816	2889.8366	2968.1619	2981.4769	3040.1963	3074.9618	3086.16	3505.6049
O=C1CN(CC#C)C1	O=C1CN(CC#C)C1	
InChI=1S/C6H7NO/c1-2-3-7-4-6(8)5-7/h1H,3-5H2	InChI=1S/C6H7NO/c1-2-3-7-4-6(8)5-7/h1H,3-5H2
