20
gdb 91096	3.28802	1.4114	1.22068	1.5751	77.28	-0.223	0.0694	0.2925	1073.8528	0.173058	-403.111343	-403.103846	-403.102901	-403.142966	30.771	
O	 0.4539600724	 0.9173822427	-0.4941428383	-0.442239
C	 0.1378122035	-0.2260550745	 0.271001492	 0.122229
C	-0.050647936	-0.0240265303	 1.807092826	-0.279363
C	-1.4760893463	-0.629274401	 1.6986226728	-0.001168
C	-1.3617803219	-0.6009479056	 0.1406511606	-0.007108
C	-1.7854684845	-1.9932875306	-0.35529223	-0.271483
C	-1.8589012357	-2.8530594711	 0.9065651058	-0.006065
C	-0.6341501347	-2.9901499658	 1.7300779589	-0.254297
N	-1.6743019168	-2.0276485839	 2.1225462982	-0.10122
H	 1.3684345575	 1.1581263483	-0.31310133	 0.280534
H	 0.8141326097	-1.057256582	 0.0203370649	 0.059561
H	 0.6475745909	-0.5296697326	 2.4784140096	 0.101025
H	-0.0768460446	 1.0408956015	 2.0520353592	 0.10627
H	-2.2730849195	-0.0350006892	 2.1498115729	 0.080016
H	-1.8998198276	 0.2127672194	-0.348860799	 0.08602
H	-2.7721250163	-1.9496764011	-0.8271955448	 0.107207
H	-1.0920675386	-2.402917885	-1.0981296493	 0.108573
H	-2.6302491229	-3.6170388815	 0.9570535856	 0.087419
H	-0.5215420946	-3.8279987078	 2.4131376232	 0.113525
H	 0.3052796561	-2.6347879998	 1.3149101415	 0.110564
118.8178	233.7569	242.0527	296.8179	319.8717	351.2633	442.9184	478.08	621.0424	678.9939	713.1023	781.5518	807.685	832.0036	853.7661	868.5649	896.6074	942.4823	990.4268	998.5693	1031.5645	1051.3772	1082.5935	1107.2368	1108.2351	1125.9004	1148.7759	1164.1961	1193.4523	1196.983	1220.8731	1251.9997	1261.8975	1279.2804	1291.9653	1319.3094	1333.2329	1345.0275	1388.5765	1424.6132	1469.873	1485.3536	1512.2366	2974.6663	3042.7915	3061.4337	3077.9378	3080.2814	3100.6619	3106.694	3120.3424	3140.298	3184.7979	3810.8999
OC1CC2C1CC1CN21	O[C@H]1C[C@H]2[C@@H]1C[C@H]1CN21	
InChI=1S/C7H11NO/c9-7-2-6-5(7)1-4-3-8(4)6/h4-7,9H,1-3H2	InChI=1S/C7H11NO/c9-7-2-6-5(7)1-4-3-8(4)6/h4-7,9H,1-3H2/t4-,5-,6-,7-,8?/m0/s1
