17
gdb 49813	3.42444	1.26162	0.95267	3.7528	79.87	-0.2328	-0.0274	0.2054	1195.9539	0.138199	-418.040261	-418.032442	-418.031498	-418.073143	29.248	
O	-0.0996191393	-0.0353970912	 0.6726426634	-0.307863
C	-0.0647900436	 1.1444787294	 0.4351365509	 0.172209
N	 0.9790470248	 1.8049185304	-0.2230837484	-0.133481
C	 0.8653249751	 3.2014845067	-0.3677013081	 0.030812
C	 1.7584051554	 4.0725393435	-0.8359463528	-0.11652
C	 3.1173839738	 3.7804532586	-1.3950583435	-0.279219
C	 3.1897146103	 2.4472547405	-2.1613852914	-0.165077
N	 3.0737831443	 1.2541146949	-1.3444919008	-0.251208
C	 2.1082366144	 1.0149735715	-0.5675925811	 0.114434
H	-0.8737598992	 1.8430378065	 0.715899111	 0.097906
H	-0.0934213645	 3.5630943978	-0.0105325004	 0.116028
H	 1.4397410361	 5.1103549079	-0.8302370976	 0.10083
H	 3.4099025993	 4.5920205145	-2.0715593799	 0.109291
H	 3.8732448504	 3.7649623228	-0.599090341	 0.128964
H	 2.4113048862	 2.4392709639	-2.9358455634	 0.117612
H	 4.1522038856	 2.3899572846	-2.6797127016	 0.111143
H	 2.0603528108	 0.0584363378	-0.0541413555	 0.15414
49.4792	165.774	200.5527	268.2028	273.5569	340.2108	407.465	478.8209	572.8293	583.1559	687.4031	751.9035	768.1996	842.0111	886.2671	931.5141	960.6015	965.6298	1017.5446	1023.7421	1052.828	1078.176	1210.6267	1216.0091	1224.1436	1301.5285	1334.3412	1352.322	1385.1415	1424.2918	1461.7338	1472.2931	1480.0375	1503.2157	1735.8519	1760.2471	1825.1536	2966.9925	3018.1233	3023.7938	3059.3702	3068.6588	3166.8013	3177.8646	3187.8539
O=CN1C=CCCN=C1	O=CN1C=CCCN=C1	
InChI=1S/C6H8N2O/c9-6-8-4-2-1-3-7-5-8/h2,4-6H,1,3H2	InChI=1S/C6H8N2O/c9-6-8-4-2-1-3-7-5-8/h2,4-6H,1,3H2
