15
gdb 53766	5.21285	0.54304	0.51945	2.601	74.68	-0.2573	-0.028	0.2292	2019.2748	0.111171	-453.967412	-453.957317	-453.956373	-454.005369	33.352	
N	-0.0701623835	 1.2782855659	 0.2635598969	-0.520413
C	 0.0145797707	-0.0617365071	 0.0230649155	 0.27017
O	 1.0658295331	-0.6644134982	-0.0731920238	-0.332942
C	-1.2778417968	-0.7182303525	-0.1270731437	 0.055346
C	-2.3117428594	-1.3242765672	-0.2553576827	 0.028341
C	-3.5404155944	-2.0864465429	-0.4425769001	-0.29468
N	-3.325773243	-3.522347444	-0.3221293619	-0.270631
C	-4.0932155863	-4.2920319532	 0.4980143448	 0.163182
O	-5.0462038957	-3.89259592	 1.1316766363	-0.317978
H	 0.7832250065	 1.7826619398	 0.4410850598	 0.268728
H	-0.9537435572	 1.7275605787	 0.4295171957	 0.268544
H	-4.2887054114	-1.8275908884	 0.3140401671	 0.181922
H	-3.976041826	-1.83710911	-1.420124334	 0.149272
H	-2.5138990256	-3.9264898467	-0.7613518879	 0.262892
H	-3.7487810111	-5.343578464	 0.5141856282	 0.088249
21.8232	26.9076	70.7901	138.3755	173.2888	181.3365	247.779	277.1037	359.504	428.5971	512.0002	525.6237	563.2574	618.2871	702.5349	771.3065	793.8873	967.1695	1032.5218	1039.3879	1083.8008	1091.3708	1202.8707	1256.2651	1351.3822	1370.0431	1424.7834	1479.1211	1518.4662	1609.6824	1775.6269	1804.091	2349.7397	2955.1164	3010.9951	3081.1521	3600.5608	3640.5117	3741.428
NC(=O)C#CCNC=O	NC(=O)C#CCNC=O	
InChI=1S/C5H6N2O2/c6-5(9)2-1-3-7-4-8/h4H,3H2,(H2,6,9)(H,7,8)	InChI=1S/C5H6N2O2/c6-5(9)2-1-3-7-4-8/h4H,3H2,(H2,6,9)(H,7,8)
