19
gdb 126666	6.27779	0.70477	0.64122	1.3588	78.66	-0.2071	0.0254	0.2325	1737.5298	0.160381	-419.218289	-419.209281	-419.208337	-419.253083	32.474	
C	-0.0552791867	 1.5195197193	 0.0805605339	-0.384468
C	 0.0073551689	-0.0072724619	-0.0090158895	-0.189234
C	 0.72259542	-0.4811206842	-1.2648672144	-0.052815
O	 0.7310527408	-1.9031407579	-1.2610885238	-0.27763
C	 1.3370876963	-2.4937381137	-2.3192546668	 0.282618
C	 1.4479570591	-3.8611869138	-2.4907947395	-0.154484
N	 2.1143251206	-4.0268525832	-3.6639591112	-0.172272
N	 2.4434165788	-2.876459103	-4.2638422115	-0.229658
C	 1.972713466	-1.9283686755	-3.4503585525	-0.118067
H	 0.9473511812	 1.9606989064	 0.0986354583	 0.11875
H	-0.5907723806	 1.9487351633	-0.7734066149	 0.118745
H	-0.5732776213	 1.8366869714	 0.9898600342	 0.120008
H	 0.5258729739	-0.4194513142	 0.8640636232	 0.110214
H	-1.0031638315	-0.4313356832	-0.0023278593	 0.110232
H	 0.2105441786	-0.1124393364	-2.1668763068	 0.10092
H	 1.755305792	-0.1009656108	-1.2915759665	 0.100939
H	 1.1124406532	-4.6855932666	-1.8845568352	 0.132862
H	 2.3707437829	-4.8947969916	-4.1015014753	 0.274906
H	 2.106999888	-0.8891189644	-3.7052458525	 0.108432
49.1207	81.2256	110.4159	136.3601	236.1833	288.7826	336.1768	339.6089	489.8011	498.8561	650.2162	695.0122	723.7529	751.6124	769.6056	847.5273	906.5045	914.4623	942.3465	1005.7335	1045.3697	1060.7028	1096.6652	1144.5235	1169.2831	1190.6606	1267.005	1268.169	1317.9758	1330.8097	1344.6804	1384.6894	1406.6879	1416.3803	1439.9804	1492.7466	1502.0359	1507.3343	1509.5644	1526.1072	1632.4261	2978.1183	3012.0439	3033.601	3041.035	3074.6421	3102.1587	3111.2528	3260.9724	3277.234	3680.7922
CCCOC1=CNN=C1	CCCOc1c[nH]nc1	
InChI=1S/C6H10N2O/c1-2-3-9-6-4-7-8-5-6/h4-5H,2-3H2,1H3,(H,7,8)	InChI=1S/C6H10N2O/c1-2-3-9-6-4-7-8-5-6/h4-5H,2-3H2,1H3,(H,7,8)
