15
gdb 13807	3.44135	1.68189	1.3381	6.4911	57.92	-0.2519	0.0065	0.2584	916.6682	0.119275	-436.943078	-436.935548	-436.934604	-436.975218	27.403	
N	-0.5645561132	 1.6615509758	 0.6045768985	-0.512678
H	-0.9468574238	 1.627683125	-0.3341976749	 0.253537
H	 0.4199890363	 1.8999748845	 0.5419115381	 0.261981
H	-1.2577220147	 2.7256263451	 1.7191631318	 0.334812
C	-0.7250814806	 0.3684125024	 1.2816894964	-0.221469
C	-0.2111007129	 0.442178256	 2.7143053097	 0.05267
O	 0.6584162818	 1.524157085	 3.0238698697	-0.24772
C	-0.590554624	 1.4464629186	 3.7341430894	-0.070592
C	-1.638460459	 2.5415016068	 3.6117784399	 0.386417
O	-2.3005571048	 2.8056009275	 4.5854442824	-0.335228
O	-1.7848605577	 3.1634087587	 2.4513404393	-0.390909
H	-1.7876578477	 0.1015047722	 1.2811397178	 0.140972
H	-0.1891976947	-0.4438997743	 0.7698892135	 0.11658
H	 0.1126442739	-0.522976538	 3.1077225257	 0.108675
H	-0.4867907189	 1.1507795447	 4.7760521528	 0.122951
80.2349	128.3121	212.6526	248.6601	312.4695	356.4966	395.9037	469.8662	608.7144	676.6456	759.8663	774.5328	855.0273	876.425	933.4768	954.9363	1005.867	1026.5266	1075.2366	1122.6643	1149.9428	1199.3786	1273.5921	1321.3483	1333.465	1377.0401	1422.9643	1454.1728	1501.3791	1509.1062	1635.0023	1837.2958	2996.2271	3047.648	3070.4517	3097.3154	3144.7543	3512.268	3597.7446
[NH3+]CC1OC1C([O-])=O	NC[C@H]1O[C@H]1C(=O)O	
InChI=1S/C4H7NO3/c5-1-2-3(8-2)4(6)7/h2-3H,1,5H2,(H,6,7)	InChI=1S/C4H7NO3/c5-1-2-3(8-2)4(6)7/h2-3H,1,5H2,(H,6,7)/t2-,3-/m1/s1
