14
gdb 99447	3.45031	0.72478	0.61609	2.8972	84.59	-0.2638	-0.038	0.2258	1695.8616	0.098625	-399.495334	-399.48588	-399.484936	-399.530349	33.125	
O	 0.083663845	 1.4121550299	 0.0313314024	-0.403007
C	 0.0601407738	 0.0110929152	 0.0412620002	-0.064789
C	-1.405752737	-0.5427204295	 0.0261413535	-0.390577
C	-2.0858053167	-0.0463739603	-1.1806298271	 0.282491
N	-2.5661339596	 0.3936940813	-2.1348811198	-0.318088
C	-1.4343719372	-1.9967590061	 0.1124700174	 0.433047
C	-1.409142028	-3.2013579692	 0.209585584	-0.234282
C	-1.3864761548	-4.5576820026	 0.3129841341	 0.294408
C	-1.3650482185	-5.7607550104	 0.4065777202	-0.541206
H	-0.1956090807	 1.7187181718	-0.8392947429	 0.304296
H	 0.6111928507	-0.4341912024	-0.7971473253	 0.125576
H	 0.5266964914	-0.3156348451	 0.9735176452	 0.139392
H	-1.9187565076	-0.105629485	 0.8933058895	 0.170838
H	-1.3485992707	-6.8198219177	 0.4857855588	 0.2019
65.7183	78.5343	114.9237	171.4707	209.0499	236.0506	356.5061	362.9515	388.5264	436.2396	508.4035	555.4539	567.8666	577.4524	611.4989	619.2038	797.4859	839.6354	1008.3049	1024.2134	1096.9233	1173.9331	1200.4014	1270.4384	1328.0242	1389.3791	1413.0595	1501.8864	2187.2165	2359.1643	2371.3001	3021.7792	3034.0314	3113.3426	3502.0421	3798.7774
OCC(C#N)C#CC#C	OC[C@@H](C#N)C#CC#C	
InChI=1S/C7H5NO/c1-2-3-4-7(5-8)6-9/h1,7,9H,6H2	InChI=1S/C7H5NO/c1-2-3-4-7(5-8)6-9/h1,7,9H,6H2/t7-/m1/s1
