18
gdb 87059	2.47404	1.38028	1.10694	2.3067	79.22	-0.2342	0.0304	0.2647	1169.3345	0.144838	-401.853046	-401.843883	-401.842939	-401.886911	34.054	
C	 0.0981663964	 1.4588395697	-0.3873827705	-0.318707
N	 0.1618189184	 0.0185071628	-0.1734334895	-0.121585
C	 1.470561681	-0.5915932128	-0.0668783312	-0.276511
C	 0.583669779	-0.4939979717	 1.1479327044	 0.117606
C	 0.9679088224	 0.4214130859	 2.1928845595	 0.267767
C	 1.2720937978	 1.1792085048	 3.075924851	-0.442239
C	-0.1734101272	-1.721489975	 1.5791792744	 0.056992
C	 0.0054096334	-2.3526142267	 2.8912389127	-0.204318
O	-1.1541207626	-1.5672540472	 2.599639551	-0.231214
H	 0.89757731	 2.0191309776	 0.1178803773	 0.116196
H	 0.1617831579	 1.646801046	-1.4633925278	 0.125964
H	-0.8651152878	 1.8310926658	-0.0277324942	 0.135823
H	 1.5974296129	-1.5513804206	-0.562978467	 0.118915
H	 2.3490323957	 0.0513976733	-0.0717038804	 0.119635
H	 1.5377748739	 1.8485933285	 3.8565260904	 0.19819
H	-0.4879556797	-2.3338815212	 0.7342111248	 0.098378
H	-0.1666589269	-3.4226884442	 2.9976892204	 0.115356
H	 0.6940591655	-1.9096500049	 3.6077118547	 0.123752
69.4384	137.0152	156.8763	172.5411	210.2006	244.3697	357.1378	362.3186	376.1203	485.6269	567.6051	594.8314	605.298	670.443	671.3834	790.3064	852.6542	882.2504	911.1542	942.9568	1013.7963	1051.4045	1098.1702	1120.7551	1129.0964	1154.5716	1162.6104	1168.5559	1205.7979	1271.1471	1319.6605	1334.4277	1428.5264	1451.7021	1490.9311	1494.3298	1508.522	1523.7229	2231.8422	3002.4137	3083.6407	3089.0305	3089.8691	3116.0403	3116.2672	3177.7082	3181.1095	3500.5245
CN1CC1(C#C)C1CO1	CN1C[C@]1(C#C)[C@H]1CO1	
InChI=1S/C7H9NO/c1-3-7(5-8(7)2)6-4-9-6/h1,6H,4-5H2,2H3	InChI=1S/C7H9NO/c1-3-7(5-8(7)2)6-4-9-6/h1,6H,4-5H2,2H3/t6-,7-,8?/m1/s1
