15
gdb 46471	3.06259	1.53057	1.10932	5.6502	69.3	-0.2525	-0.0742	0.1783	1048.9759	0.113355	-453.934496	-453.926821	-453.925877	-453.967458	28.243	
N	-0.0662506428	 1.2433106095	 0.329255002	-0.496992
C	-0.0192531929	 0.0310541656	-0.0131688821	 0.327796
O	 1.0848585094	-0.6285004678	-0.4692147657	-0.250306
C	 0.8274178256	-2.0243044178	-0.7278701146	-0.185996
C	-0.6602729523	-2.2333278722	-0.5067821324	 0.179814
C	-1.5186212529	-3.1137231083	-1.3523381003	-0.264173
N	-1.2351517106	-3.4767315531	 0.0354230004	-0.321638
C	-1.1923001362	-0.9287967478	 0.0122172459	 0.276956
O	-2.317850593	-0.6825765942	 0.3471591884	-0.279689
H	 0.849772184	 1.6874762682	 0.2320760478	 0.233444
H	 1.1541540961	-2.2407566734	-1.7492446871	 0.132888
H	 1.4348664048	-2.6144650561	-0.0311820383	 0.129889
H	-2.5424325547	-2.8012734272	-1.5372859825	 0.152419
H	-1.0355130217	-3.6603540992	-2.1587026848	 0.125705
H	-0.5088346529	-4.1907399261	 0.0685156434	 0.239881
41.8338	121.7766	227.7318	251.6772	329.0483	335.6328	447.8369	472.6647	578.0985	635.7067	723.09	767.7623	858.7679	876.6952	909.5246	940.156	980.4736	987.1326	1005.9157	1030.2645	1099.6161	1131.2966	1142.3615	1222.9333	1260.5553	1276.3917	1309.7	1371.9947	1420.9714	1496.78	1517.8441	1760.7602	1860.5217	3030.0279	3082.3416	3106.2352	3203.142	3464.1493	3477.892
N=C1OCC2(CN2)C1=O	[NH][C]1OC[C@]2(CN2)C1=O	
InChI=1S/C5H6N2O2/c6-4-3(8)5(1-7-5)2-9-4/h6-7H,1-2H2	InChI=1S/C5H6N2O2/c6-4-3(8)5(1-7-5)2-9-4/h6-7H,1-2H2/t5-/m1/s1
