18
gdb 88522	2.18971	1.59297	1.19558	2.9712	72.93	-0.2312	-0.0421	0.1891	1098.7042	0.1451	-439.031129	-439.022118	-439.021174	-439.065298	32.688	
C	-0.3223232457	 1.3515541692	-0.0392042717	-0.334783
N	-0.0164262369	-0.061807507	 0.1551972586	-0.082335
C	 1.3398920644	-0.5149402662	-0.1278810065	-0.262575
C	 0.8337936239	-0.4611067308	 1.2727234033	-0.081358
C	 1.4128401387	 0.5221881771	 2.248371023	 0.264287
C	 2.85475935	 0.4755934094	 2.5967077778	-0.216311
O	 2.3444896916	 1.5116917587	 1.7766406018	-0.252621
C	 0.5078060078	 1.060053652	 3.3194368977	 0.129607
O	-0.5932486562	 0.6358660364	 3.553030511	-0.248012
H	 0.5198218231	 2.0300657386	 0.1586501103	 0.124794
H	-0.6422167825	 1.4957089014	-1.0756550404	 0.124581
H	-1.1560493219	 1.6247773757	 0.6146201746	 0.135729
H	 1.4283017009	-1.4676080918	-0.6436378234	 0.115827
H	 2.0807073984	 0.2342458006	-0.4020835024	 0.122949
H	 0.5049076893	-1.3758574783	 1.7624235394	 0.108813
H	 3.1905783746	 0.7843590037	 3.58583491	 0.12801
H	 3.4681919802	-0.2707435925	 2.0958791168	 0.135444
H	 0.9584851102	 1.9050569738	 3.8867684802	 0.087953
46.1965	130.4898	144.0173	184.6232	213.1525	264.6583	319.9271	362.2574	385.6594	449.8645	535.5129	608.6549	713.455	786.8667	857.3939	884.9064	895.1945	940.6509	1013.7837	1041.7238	1052.285	1097.6484	1130.0291	1133.2989	1137.7988	1162.2813	1177.6776	1207.3212	1258.091	1324.5293	1339.0716	1405.7269	1432.0744	1447.8994	1493.0832	1505.3785	1506.8052	1517.0211	1830.7855	2890.3896	3002.1985	3080.0791	3087.7466	3094.7758	3109.3865	3124.4301	3182.3921	3182.5156
CN1CC1C1(CO1)C=O	CN1C[C@H]1[C@]1(CO1)C=O	
InChI=1S/C6H9NO2/c1-7-2-5(7)6(3-8)4-9-6/h3,5H,2,4H2,1H3	InChI=1S/C6H9NO2/c1-7-2-5(7)6(3-8)4-9-6/h3,5H,2,4H2,1H3/t5-,6+,7?/m0/s1
