23
gdb 112114	2.59264	1.22232	0.97784	1.374	86.91	-0.2323	0.0321	0.2643	1312.0675	0.206921	-388.305959	-388.296618	-388.295674	-388.339621	36.253	
C	-0.1845089128	 1.5918542688	-0.0453750859	-0.394844
C	 0.0072453795	 0.0668475452	 0.0109706477	-0.010224
C	 0.7444652699	-0.459538555	-1.2360056719	-0.218355
C	 2.1824861651	 0.0753409882	-1.3325720807	-0.245172
C	 2.8833056333	 0.0460704302	-0.0003070818	-0.068448
C	 2.2556095775	-0.1777426768	 1.1535482859	-0.039687
C	 0.7672082918	-0.4150667491	 1.2702738482	-0.004179
C	 0.2145389148	 0.1716181906	 2.572356842	-0.11101
O	 0.7885561261	-0.5581681485	 3.6497985898	-0.423367
H	 0.7669385427	 2.1250996579	 0.0429287507	 0.124878
H	-0.6461500772	 1.8833036765	-0.9950968647	 0.107154
H	-0.8392411148	 1.9473254918	 0.7560149661	 0.111049
H	-0.9910475755	-0.3900320579	 0.0297843156	 0.064387
H	 0.7760585073	-1.5549816046	-1.1859043126	 0.096001
H	 0.1837018493	-0.2015455607	-2.1417867119	 0.086024
H	 2.7493596597	-0.5126159086	-2.0658647782	 0.100043
H	 2.1867323453	 1.1025446093	-1.7263214447	 0.104974
H	 3.9570554087	 0.2219222942	-0.0038897902	 0.078837
H	 2.8121665385	-0.205937333	 2.0861987831	 0.093978
H	 0.6040858805	-1.5002684181	 1.3611628731	 0.090579
H	 0.4640981842	 1.2402430351	 2.6470053801	 0.089156
H	-0.8843538187	 0.0832768176	 2.5779533844	 0.082266
H	 0.563389885	-0.1106654532	 4.4702443959	 0.285962
101.2039	131.9218	182.351	204.624	250.357	255.1279	288.4524	336.0232	372.8409	388.7546	492.8079	548.4716	594.1937	694.147	770.7892	798.4061	834.4059	870.7575	928.8042	962.2879	996.7171	1010.3245	1013.2893	1032.7885	1062.9984	1089.0258	1107.2141	1114.2255	1130.4396	1195.7928	1219.2805	1236.4471	1256.3509	1265.0747	1317.8509	1329.0955	1342.7461	1358.368	1375.5634	1387.3885	1413.8563	1421.7518	1452.5268	1474.9382	1488.7893	1499.8925	1509.7251	1521.4693	1721.7395	2962.4993	2978.1654	2998.7369	3005.7004	3011.7816	3024.0278	3035.2125	3038.098	3064.0108	3096.7042	3110.5562	3141.3739	3174.6676	3833.8208
CC1CCC=CC1CO	C[C@H]1CCC=C[C@H]1CO	
InChI=1S/C8H14O/c1-7-4-2-3-5-8(7)6-9/h3,5,7-9H,2,4,6H2,1H3	InChI=1S/C8H14O/c1-7-4-2-3-5-8(7)6-9/h3,5,7-9H,2,4,6H2,1H3/t7-,8-/m0/s1
