19
gdb 84457	3.96127	1.16082	1.03214	1.0121	88.48	-0.2246	0.0119	0.2366	1212.2747	0.158827	-348.723157	-348.714754	-348.71381	-348.755666	33.408	
C	-0.1711768792	 1.5842450111	 0.0332918166	-0.392275
C	 0.0347701046	 0.0621491408	 0.0029383392	-0.04366
C	 0.8393745935	-0.4363498661	-1.1845072164	-0.083089
C	 1.8280720245	-1.2576748378	-0.8320646341	-0.171413
C	 1.9174962145	-1.4164843625	 0.6576768109	 0.175818
C	 2.2474888291	-0.1142395447	 1.3902156837	-0.316136
C	 0.8098230208	-0.5001021035	 1.1994456121	-0.097169
C	 2.2603713102	-2.6788807941	 1.2384683062	 0.176479
C	 2.5597352419	-3.7434400119	 1.7133283446	-0.409102
H	 0.7853711779	 2.1135781268	 0.0808090447	 0.118638
H	-0.6992649347	 1.9241641666	-0.8637099172	 0.114185
H	-0.7656470575	 1.8805401856	 0.9032830119	 0.117051
H	-0.9612930094	-0.4044813087	-0.0215708163	 0.086756
H	 0.6200173235	-0.1232162913	-2.1996569324	 0.095648
H	 2.5226276043	-1.7517862747	-1.5007571424	 0.104432
H	 2.6489269693	-0.2095563293	 2.3930094657	 0.122956
H	 2.6774909792	 0.6832776653	 0.7940594844	 0.118094
H	 0.2572365449	-0.8047021795	 2.0799185744	 0.098872
H	 2.8187579226	-4.6831025821	 2.1335743545	 0.183915
111.4744	134.7325	197.1649	235.4238	265.4949	375.5046	402.0438	475.5117	520.4109	542.8981	568.6883	603.9167	646.8483	694.6896	754.6618	777.1079	806.5019	853.8124	925.0999	953.7332	956.8227	977.6803	1003.2431	1047.699	1070.0171	1073.7293	1116.2491	1118.5807	1152.215	1233.8636	1258.3277	1316.1752	1329.7702	1348.8096	1393.9662	1415.552	1473.5983	1497.8583	1499.8715	1671.6933	2234.1401	2989.5933	3034.3046	3101.795	3108.8494	3131.9614	3184.7865	3186.0587	3214.0758	3225.3847	3504.5518
CC1C=CC2(CC12)C#C	C[C@H]1C=C[C@]2(C[C@@H]12)C#C	
InChI=1S/C9H10/c1-3-9-5-4-7(2)8(9)6-9/h1,4-5,7-8H,6H2,2H3	InChI=1S/C9H10/c1-3-9-5-4-7(2)8(9)6-9/h1,4-5,7-8H,6H2,2H3/t7-,8-,9-/m0/s1
