21
gdb 65135	2.91677	1.40469	1.26825	1.9593	81.53	-0.2217	0.0739	0.2956	1109.5139	0.183717	-383.192307	-383.183914	-383.18297	-383.225172	32.992	
C	 0.7764308338	-0.1421978954	-1.3608505011	-0.455991
C	 0.0710536862	 0.0166739149	-0.0264083061	 0.284778
C	 0.8506566949	-0.2426574737	 1.2153120351	-0.27775
N	 0.4672423786	 1.1326254301	 0.8544331376	-0.341217
C	-1.3778105336	-0.3936534266	-0.061071267	-0.031383
C	-2.5397954281	 0.1834460693	 0.643721965	-0.058859
C	-2.5157644701	 1.7047799651	 0.7767038127	-0.233679
C	-2.2699740669	 1.7403940507	-0.7490124	-0.151826
N	-2.4320490317	 0.2414491534	-0.8844344139	-0.174293
H	 1.8460418057	 0.074851123	-1.2705998269	 0.108146
H	 0.6704553995	-1.1648056758	-1.7389127711	 0.12863
H	 0.3497230839	 0.528216539	-2.1142022099	 0.134231
H	 0.351882474	-0.634718619	 2.0973860616	 0.120045
H	 1.8909015257	-0.5405287943	 1.1109043634	 0.108626
H	 1.2632706991	 1.61840078	 0.4474067959	 0.226788
H	-1.4576414616	-1.4748621992	-0.1854231406	 0.092856
H	-3.2669336467	-0.4627376929	 1.1287403388	 0.087179
H	-3.4985489591	 2.1002649422	 1.0419950264	 0.098372
H	-1.7525851699	 2.1277882022	 1.4276147508	 0.13014
H	-3.0565715357	 2.2375162812	-1.3196184985	 0.105649
H	-1.299488788	 2.1174195858	-1.0830989323	 0.099559
67.5522	161.1684	203.4591	217.1265	274.9926	316.9421	351.8309	395.1604	487.2735	549.7836	738.5756	751.749	772.9381	784.8962	800.9686	860.5809	890.466	933.9948	963.756	972.2637	978.1342	1005.065	1020.9149	1038.6194	1077.0176	1083.7514	1113.9686	1139.9419	1143.3209	1183.5287	1225.1592	1239.3427	1266.8479	1276.9412	1295.3615	1311.1286	1367.8108	1374.0459	1416.6281	1458.7193	1477.1568	1481.6118	1498.3091	1509.797	1513.9008	3028.7049	3061.1171	3078.58	3092.4796	3096.9876	3101.4982	3105.4877	3113.2242	3140.8211	3151.408	3191.2723	3488.3236
CC1(CN1)C1C2CCN12	C[C@]1(CN1)[C@H]1[C@H]2CCN12	
InChI=1S/C7H12N2/c1-7(4-8-7)6-5-2-3-9(5)6/h5-6,8H,2-4H2,1H3	InChI=1S/C7H12N2/c1-7(4-8-7)6-5-2-3-9(5)6/h5-6,8H,2-4H2,1H3/t5-,6-,7+,9?/m1/s1
