21
gdb 73926	2.65949	1.12476	0.88527	2.6124	87.11	-0.2238	-0.0191	0.2047	1372.4359	0.181485	-387.127418	-387.117726	-387.116782	-387.163199	34.71	
C	-0.1541115817	 1.4735866293	-0.1206479932	-0.504781
C	-0.0582154908	-0.0197363762	-0.0902037168	 0.248245
C	-1.0605063888	-0.9076056003	-0.0156535406	 0.198615
C	-2.5367710932	-0.5888643011	 0.0482400683	-0.391087
C	-3.0567391886	-0.3017298529	-1.3489636987	 0.169906
O	-3.5096602978	 0.7554459782	-1.7061154671	-0.244523
C	-0.5524235431	-2.3336361303	 0.0306052701	-0.303417
C	 0.94445117	-2.1989841876	-0.3374239419	-0.20917
C	 1.2890100448	-0.7126539775	-0.0801337061	-0.286201
H	 0.3376957571	 1.9167244495	 0.7555449141	 0.124242
H	 0.3625536138	 1.8771620174	-1.000531933	 0.129054
H	-1.1867203141	 1.8279427969	-0.152549061	 0.139863
H	-3.0838635516	-1.4506869362	 0.4519419813	 0.117528
H	-2.7530609997	 0.2795232701	 0.6758716762	 0.125257
H	-2.956678455	-1.1530901508	-2.0605411259	 0.075921
H	-0.6950790858	-2.7544550454	 1.0376102795	 0.103328
H	-1.0929753194	-3.0014779665	-0.6517614214	 0.098815
H	 1.5829655059	-2.8878185048	 0.2210723067	 0.098157
H	 1.0792976652	-2.4249170272	-1.3997959508	 0.10594
H	 1.9764558857	-0.3037218723	-0.8304628221	 0.100871
H	 1.7817560873	-0.5653900623	 0.8925620724	 0.103437
32.6549	67.5671	128.6387	146.7223	160.8473	212.842	272.2426	336.0993	369.7342	469.7023	557.7022	593.4848	615.3892	714.0659	830.1255	848.9239	891.5531	916.0192	924.6688	992.8224	1003.3483	1023.3832	1057.7852	1091.6881	1096.2623	1156.7021	1166.6197	1205.4344	1228.5896	1247.2225	1256.3847	1288.1973	1326.8075	1328.4811	1358.0429	1418.6862	1423.3713	1463.885	1481.8223	1484.2083	1488.1756	1495.5214	1507.4144	1727.4645	1825.559	2868.6177	2992.0592	2997.2379	3017.1191	3028.2718	3034.2539	3042.2111	3060.1566	3061.5929	3101.7126	3101.9097	3124.7844
CC1=C(CC=O)CCC1	CC1=C(CC=O)CCC1	
InChI=1S/C8H12O/c1-7-3-2-4-8(7)5-6-9/h6H,2-5H2,1H3	InChI=1S/C8H12O/c1-7-3-2-4-8(7)5-6-9/h6H,2-5H2,1H3
