17
gdb 11720	5.00552	1.43183	1.2561	3.0019	70.25	-0.2443	-0.0306	0.2137	985.9275	0.14144	-363.83162	-363.823919	-363.822975	-363.863536	28.729	
C	-0.2358084007	 1.5404614684	 0.0651661559	-0.405189
C	 0.0984024818	 0.0619848967	-0.0095570202	 0.086152
C	 1.1875198435	-0.4511472713	-0.9935950184	-0.348045
C	 1.8859411173	-1.0437234244	 0.222090454	 0.266785
C	 2.1567642852	 0.0029873614	 1.2421065061	-0.278359
N	 0.8024855456	-0.5343320663	 1.2020613721	-0.178165
C	 2.3943356785	-2.4212172412	 0.343025614	 0.07091
O	 2.583369912	-3.1568925286	-0.5956602551	-0.261937
H	 0.6552531998	 2.1695453591	 0.1521004633	 0.118219
H	-0.7681127467	 1.8477541639	-0.8411917128	 0.126532
H	-0.8827124647	 1.7439091256	 0.9245653651	 0.132309
H	-0.8241762738	-0.5117819156	-0.1267446838	 0.097491
H	 0.8311047335	-1.2093420695	-1.6910980447	 0.133966
H	 1.7566874725	 0.3017374385	-1.546052989	 0.10736
H	 2.6962116714	-0.2917643014	 2.137836795	 0.131475
H	 2.3702270091	 1.0120506711	 0.8982507928	 0.122807
H	 2.5832819558	-2.7432425565	 1.3919175856	 0.07769
95.5532	161.4759	188.8886	221.4375	304.6277	323.5027	419.5987	466.4116	541.2591	665.195	738.3647	745.8887	826.5533	855.7704	906.2693	946.407	972.4641	1027.246	1084.7534	1088.7699	1113.8638	1133.3271	1135.8839	1200.3413	1245.2358	1275.9755	1319.3884	1349.2365	1390.0064	1410.9718	1428.8051	1483.9685	1492.0788	1496.8774	1506.7745	1807.5771	2881.4277	3036.3325	3063.9525	3071.21	3105.2268	3108.5923	3113.6798	3136.9882	3196.6659
CC1CC2(CN12)C=O	C[C@H]1C[C@]2(CN12)C=O	
InChI=1S/C6H9NO/c1-5-2-6(4-8)3-7(5)6/h4-5H,2-3H2,1H3	InChI=1S/C6H9NO/c1-5-2-6(4-8)3-7(5)6/h4-5H,2-3H2,1H3/t5-,6-,7?/m0/s1
