17
gdb 65900	2.62572	1.2861	1.17547	4.7099	73.79	-0.2475	-0.0793	0.1682	1130.0837	0.134748	-418.005288	-417.996108	-417.995164	-418.03988	32.667	
C	-0.202411941	 1.5894523833	-0.0166861726	-0.479244
C	-0.0149004987	 0.0733361391	-0.0649635605	 0.222844
C	 0.8290146227	-0.4737676215	-1.2475097867	-0.296874
C	 1.9333339355	-0.7707474418	-0.2027062469	-0.153043
N	 0.9654167549	-0.4996169561	 0.8925396142	-0.34804
C	-1.3482496923	-0.6371773785	 0.1344706472	 0.295086
O	-1.9624188121	-1.2331650455	-0.7113287797	-0.281848
C	-1.8626222891	-0.561549942	 1.5243278467	 0.236104
N	-2.2851349504	-0.450021357	 2.5949702092	-0.312507
H	 0.7645289001	 2.087731082	-0.1381799505	 0.130007
H	-0.8664039157	 1.928930376	-0.8186217391	 0.141104
H	-0.6334253571	 1.9033463458	 0.940279655	 0.144675
H	 0.3883419672	-1.3553747042	-1.712665748	 0.136968
H	 1.0752350215	 0.2556557729	-2.019433022	 0.114349
H	 2.3372113474	-1.7871636342	-0.1852723696	 0.117521
H	 2.7699252587	-0.0636658776	-0.247313406	 0.104783
H	 1.2791322684	 0.1287136793	 1.6240619195	 0.228113
41.315	100.08	123.4972	185.4211	234.3373	263.3696	302.2169	321.8982	349.4736	480.0605	503.2207	664.2088	699.3625	760.1592	782.3438	834.1031	913.4767	935.8926	953.7219	991.8411	1018.0353	1057.4838	1129.4291	1176.7497	1198.0356	1214.3212	1248.0685	1286.1038	1330.0712	1381.8954	1403.0516	1484.4525	1492.5663	1492.7994	1524.8955	1802.3866	2335.431	3028.1404	3030.3987	3079.4508	3094.7129	3104.2955	3108.2558	3152.9714	3533.6344
CC1(CCN1)C(=O)C#N	C[C@]1(CCN1)C(=O)C#N	
InChI=1S/C6H8N2O/c1-6(2-3-8-6)5(9)4-7/h8H,2-3H2,1H3	InChI=1S/C6H8N2O/c1-6(2-3-8-6)5(9)4-7/h8H,2-3H2,1H3/t6-/m0/s1
