20
gdb 56760	2.59932	1.31733	1.0767	1.2491	84.08	-0.2508	0.0557	0.3065	1209.382	0.170043	-365.942025	-365.93294	-365.931996	-365.975895	34.698	
C	 0.0645078347	 1.4442512592	-0.2079400249	-0.398832
C	 0.0285300638	-0.0708031551	 0.0888527585	-0.253598
C	 0.7775048278	-0.3942236445	 1.3039780757	 0.328341
C	 1.3855616821	-0.6428709608	 2.3110840831	-0.476201
C	-1.3982798826	-0.5723253209	 0.17028667	 0.374893
C	-2.3945495212	-0.3354383101	 1.3209359282	-0.303129
C	-3.0159067704	-1.7423579043	 1.0264481722	-0.23543
C	-2.0018236216	-1.9186615469	-0.1115454004	-0.094862
N	-2.1008749097	-0.8282881632	-1.0826743736	-0.368876
H	 1.0946370777	 1.7954285398	-0.3065820783	 0.124577
H	-0.4689893012	 1.6473060403	-1.1405304857	 0.127962
H	-0.4099323593	 2.0097055969	 0.5996315206	 0.124536
H	 0.4930307952	-0.5926845824	-0.7574111204	 0.115572
H	 1.9314379446	-0.8717752025	 3.1926389766	 0.193984
H	-1.9111032679	-0.294957325	 2.2989672468	 0.122452
H	-3.0474366098	 0.5369728944	 1.2112248004	 0.093044
H	-2.8650835571	-2.4410550806	 1.8524153276	 0.11197
H	-4.0696877559	-1.7735282362	 0.7290322676	 0.096783
H	-1.5376838965	-2.8436382059	-0.435416709	 0.095715
H	-3.0308126828	-0.4124123421	-1.111882255	 0.2211
58.1277	109.0896	174.597	194.7831	229.3759	262.9492	331.7076	388.4535	463.0368	509.1348	549.5768	624.1717	636.5629	671.4928	757.1681	785.0282	843.1442	857.1348	921.3583	938.2991	949.5374	1002.4552	1020.3812	1051.3562	1078.719	1099.7806	1102.8051	1144.0352	1188.1167	1210.901	1229.3114	1246.9904	1277.6804	1284.3884	1320.7834	1325.2132	1398.5901	1435.8902	1477.4201	1495.3604	1497.2371	1500.331	2233.6033	3029.5382	3041.0825	3043.9116	3050.0273	3102.8854	3119.346	3121.3196	3126.422	3174.775	3451.0955	3503.5842
CC(C#C)C12CCC1N2	C[C@@H](C#C)[C@]12CC[C@H]1N2	
InChI=1S/C8H11N/c1-3-6(2)8-5-4-7(8)9-8/h1,6-7,9H,4-5H2,2H3	InChI=1S/C8H11N/c1-3-6(2)8-5-4-7(8)9-8/h1,6-7,9H,4-5H2,2H3/t6-,7+,8+/m0/s1
