20
gdb 68063	2.26811	1.68665	1.15715	3.9124	81.85	-0.2304	0.0167	0.2471	1129.3232	0.169363	-403.121089	-403.11209	-403.111146	-403.154291	34.289	
C	-0.1055259369	 1.4523011309	 0.1905038101	-0.511847
C	 0.0093396377	-0.0401864727	 0.1122115732	 0.330329
C	 0.3462064834	-0.9477646296	-1.1168762321	-0.294235
C	-0.0051005491	-1.9100058436	 0.0611068013	 0.313993
C	-0.1408545236	-3.4039447839	 0.0633368471	-0.516872
C	 0.8739889465	-1.0082498183	 0.9757419137	-0.286195
N	-1.1489943431	-0.9720476372	 0.4164139052	-0.115999
C	-2.3839670509	-0.9251740901	-0.1698186405	 0.11782
O	-2.9683343315	 0.0858834002	-0.5046958934	-0.325356
H	 0.8492545179	 1.9169100381	-0.076303288	 0.118302
H	-0.882884698	 1.8107379484	-0.4872269137	 0.157804
H	-0.3680076208	 1.7638395844	 1.2062214899	 0.131165
H	-0.3635006641	-0.9144228996	-1.9463384402	 0.112603
H	 1.3842876132	-0.9469660854	-1.4622668479	 0.096246
H	 0.824841684	-3.8654997998	-0.1655255125	 0.132475
H	-0.46837452	-3.7629611499	 1.0438663703	 0.135928
H	-0.8612276912	-3.7426386734	-0.6879890245	 0.131398
H	 1.94677373	-1.0128967126	 0.7737489407	 0.097817
H	 0.6410397745	-1.0362889825	 2.0414881138	 0.105264
H	-2.8542140778	-1.9296942533	-0.2221101725	 0.069359
115.4276	158.2617	193.2749	205.059	214.314	225.8891	285.8832	368.028	373.7051	501.856	568.8817	589.9019	636.2345	679.0429	742.7729	767.9343	899.9136	911.1524	934.0853	1003.423	1009.7949	1020.1348	1030.1734	1068.1791	1118.5109	1131.1908	1167.9444	1174.9484	1195.4182	1216.7984	1289.158	1339.0747	1365.6933	1410.9444	1417.243	1423.6072	1477.2918	1480.7395	1483.6666	1489.7584	1492.5627	1532.5669	1772.8222	2909.5778	3037.5427	3042.6316	3051.1408	3073.2288	3107.9036	3109.2741	3112.6234	3127.6314	3138.4085	3148.3576
CC12CC(C)(C1)N2C=O	C[C@@]12C[C@@](C)(C1)N2C=O	
InChI=1S/C7H11NO/c1-6-3-7(2,4-6)8(6)5-9/h5H,3-4H2,1-2H3	InChI=1S/C7H11NO/c1-6-3-7(2,4-6)8(6)5-9/h5H,3-4H2,1-2H3/t6-,7+
