20
gdb 120840	2.51004	0.92099	0.75166	3.841	76.95	-0.2448	-0.0305	0.2143	1534.3864	0.16897	-440.251977	-440.242153	-440.241209	-440.288286	34.837	
O	-0.2861029717	 1.8104425025	-0.4736081769	-0.421045
C	-0.2696060108	 0.498691679	 0.0455763747	-0.045296
C	-1.6828734836	-0.077505352	 0.1394264534	-0.166036
N	-2.2823215439	-0.0070006381	-1.1951693275	-0.089923
C	-2.3119686316	-1.2166402287	-2.0124285862	-0.264837
C	-3.5734138043	-0.6295133495	-1.4775032036	 0.00301
C	-4.3849074421	-1.3521427042	-0.4147331022	-0.311488
C	-5.1896383616	-0.3886528853	 0.4365836208	 0.169767
O	-5.1922718216	-0.3752099642	 1.6395604525	-0.235509
H	-0.9119929415	 1.7787378938	-1.2099493805	 0.284564
H	 0.3539230418	-0.1720638421	-0.5709023242	 0.081343
H	 0.1816324938	 0.542438722	 1.0425537154	 0.106564
H	-1.6466956262	-1.0978616397	 0.5520418825	 0.088949
H	-2.2813272629	 0.5420126077	 0.8159662	 0.126874
H	-2.0446691474	-1.1018466911	-3.059403085	 0.123138
H	-1.9658998846	-2.1423460308	-1.553521994	 0.115142
H	-4.185143882	-0.0398362406	-2.1605736144	 0.099533
H	-5.1021716667	-2.0101098496	-0.9273745612	 0.130071
H	-3.7710323158	-1.9732981887	 0.2404956454	 0.126758
H	-5.8051372673	 0.3350523496	-0.1477732991	 0.078421
40.9252	63.0973	76.0219	131.4939	181.4479	195.7148	283.962	361.4147	428.4054	461.4785	490.9163	510.0842	569.8518	727.8476	749.563	857.937	895.4378	911.9923	958.7086	1006.8069	1030.1961	1047.2322	1093.3418	1106.7699	1127.8138	1131.0623	1156.4505	1172.8261	1215.8257	1234.4865	1277.9058	1285.3941	1334.7717	1382.2344	1383.3761	1422.749	1428.8862	1444.8492	1456.6308	1480.5868	1509.5228	1511.9977	1837.186	2859.0487	2953.7177	2982.5389	3013.445	3068.7949	3079.337	3089.6032	3098.4713	3120.788	3178.8548	3749.4424
OCCN1CC1CC=O	OCCN1C[C@H]1CC=O	
InChI=1S/C6H11NO2/c8-3-1-6-5-7(6)2-4-9/h3,6,9H,1-2,4-5H2	InChI=1S/C6H11NO2/c8-3-1-6-5-7(6)2-4-9/h3,6,9H,1-2,4-5H2/t6-,7?/m1/s1
