21
gdb 96577	2.383	1.43303	1.03392	1.8679	80.71	-0.2384	0.0093	0.2477	1209.3329	0.183818	-424.220284	-424.211643	-424.210699	-424.253155	33.957	
O	-0.2024846007	 1.5265027274	-0.0614613807	-0.444336
C	-0.0478214218	 0.1099984385	 0.0055177973	 0.091987
C	-1.4665393739	-0.4774307772	 0.046231602	-0.198329
C	-1.4920667172	-2.0064719101	-0.003252455	-0.07695
O	-0.5982261355	-2.5892870659	 0.9402227347	-0.24905
C	 0.5081163186	-3.2975857662	 0.4175994733	-0.065149
C	 1.7213525115	-2.4077856638	 0.0694715658	-0.257897
C	 1.5250105678	-1.5056663074	-1.1261102152	-0.069889
C	 0.7610384334	-0.4118334295	-1.1525732328	-0.085221
H	 0.6765160699	 1.9170918771	-0.0292395396	 0.279109
H	 0.4432287602	-0.1730965175	 0.9474723264	 0.07906
H	-1.9496281852	-0.1161845947	 0.9604640639	 0.11139
H	-2.0447839079	-0.0853034096	-0.7996419026	 0.10314
H	-2.5046688906	-2.3580995502	 0.2349296197	 0.097606
H	-1.2509536377	-2.3558231897	-1.0142075991	 0.09753
H	 0.8066405744	-4.0029572249	 1.2016453669	 0.103397
H	 0.2100083806	-3.8866157619	-0.4630337629	 0.09196
H	 1.9601971959	-1.819601678	 0.9643165966	 0.11756
H	 2.5763252051	-3.0706430852	-0.1073096472	 0.096267
H	 2.0303923162	-1.8042642962	-2.0421282763	 0.088769
H	 0.6528802668	 0.155828005	-2.0753010653	 0.089046
119.4146	165.8015	183.6145	223.2056	291.096	303.2014	343.567	389.5966	429.7558	461.6625	536.991	574.3567	620.2966	752.2961	797.9473	807.9684	878.48	901.616	992.4088	1004.5679	1006.679	1023.2598	1050.6684	1064.7924	1095.5333	1132.3819	1157.5107	1192.1829	1227.1178	1257.1575	1276.9272	1298.3817	1304.6946	1346.4821	1354.801	1361.0778	1394.1737	1402.755	1422.9005	1433.0011	1475.6728	1482.5796	1491.5809	1509.0401	1711.7012	2987.9031	2995.6177	3010.8486	3024.8558	3037.0501	3053.9258	3062.2279	3068.6695	3085.737	3134.2791	3157.6093	3817.1716
OC1CCOCCC=C1	O[C@H]1CCOCCC=C1	
InChI=1S/C7H12O2/c8-7-3-1-2-5-9-6-4-7/h1,3,7-8H,2,4-6H2/b3-1-	InChI=1S/C7H12O2/c8-7-3-1-2-5-9-6-4-7/h1,3,7-8H,2,4-6H2/b3-1-/t7-/m1/s1
