23
gdb 79347	2.58601	1.6993	1.51454	0.0473	87.11	-0.253	0.0806	0.3336	1038.1747	0.210358	-351.182996	-351.175451	-351.174506	-351.214567	31.617	
C	-0.1877968249	 1.4728879157	-0.0482129525	-0.411165
C	 0.0545935352	-0.0403140172	-0.0311061648	 0.031737
C	 0.9679464997	-0.4865535038	-1.1681408922	-0.045745
C	 2.3781059841	-0.6057256588	-0.6123619488	-0.05059
C	 2.3159227916	-0.2483221723	 0.8654531319	-0.227377
C	 0.8361032668	-0.5358276596	 1.2155571905	-0.023374
C	 0.6422356139	-2.0557638935	 1.3609980776	-0.222555
C	 1.1029909579	-2.8024874094	 0.0761091388	-0.223224
C	 1.6051914625	-1.8465859414	-0.998475864	-0.044816
H	 0.7518191556	 2.0322620509	 0.0092070788	 0.116106
H	-0.6947342215	 1.7782396308	-0.9702305586	 0.108958
H	-0.815483479	 1.7813941013	 0.7949434083	 0.106898
H	-0.9204643036	-0.5445127308	-0.078561527	 0.059372
H	 0.7848099545	-0.1086135108	-2.1688506284	 0.068299
H	 3.243854065	-0.3180921731	-1.1985547282	 0.070953
H	 3.0015724787	-0.8368719343	 1.486817177	 0.087849
H	 2.5691030599	 0.8072819009	 1.0151189491	 0.093264
H	 0.5156710492	-0.0270911919	 2.1298106585	 0.05546
H	 1.2058700572	-2.4119923592	 2.2302734558	 0.090338
H	-0.4124788396	-2.2686730836	 1.5671662408	 0.091123
H	 1.8984857649	-3.5170903316	 0.3174330372	 0.097522
H	 0.2799403175	-3.4001668043	-0.3323175443	 0.097612
H	 1.9258910245	-2.328359454	-1.9182167957	 0.073353
113.2469	208.2891	225.1967	282.3041	364.6056	382.6833	464.2054	524.8308	622.1356	686.7595	752.523	764.8818	802.9606	815.0593	836.6238	873.9705	895.0415	912.9341	960.9664	1002.8117	1013.4465	1032.6087	1038.5304	1058.1323	1070.0687	1088.6385	1111.0491	1125.3621	1133.111	1162.7988	1181.7147	1200.7602	1253.7476	1272.7585	1295.0458	1303.2011	1324.5848	1334.1127	1343.791	1361.423	1373.8378	1398.2365	1409.9972	1435.8175	1489.2002	1494.7362	1497.3752	1505.1337	1514.6946	3003.7903	3022.2501	3026.809	3029.3909	3035.8205	3047.0351	3059.5398	3065.0655	3075.4855	3091.9773	3100.7234	3137.4008	3155.0131	3170.3153
CC1C2C3CC1CCC23	C[C@H]1[C@H]2[C@H]3C[C@@H]1CC[C@@H]23	
InChI=1S/C9H14/c1-5-6-2-3-7-8(4-6)9(5)7/h5-9H,2-4H2,1H3	InChI=1S/C9H14/c1-5-6-2-3-7-8(4-6)9(5)7/h5-9H,2-4H2,1H3/t5-,6+,7-,8+,9-/m1/s1
