17
gdb 23016	2.84542	1.05892	0.90233	1.2308	79.62	-0.2334	0.0024	0.2358	1309.9712	0.133319	-417.904077	-417.894579	-417.893635	-417.938704	34.859	
C	 1.1594669468	 0.1926461071	 0.6238340491	-0.489909
C	-0.2682698897	-0.0525461478	 0.2323746473	 0.387364
N	-1.2880279141	 0.4842501678	 0.7930718396	-0.18441
O	-0.921467928	 1.3084258713	 1.8641202665	-0.394575
C	-0.6240693672	-0.9532250149	-0.8980152179	-0.090655
N	 0.3707817241	-1.1800378657	-1.9508021436	-0.332938
C	-0.0334975868	-2.3266425021	-1.1146899324	-0.249193
C	 0.946078078	-2.9311152703	-0.2552950379	 0.376262
C	 1.7321281347	-3.4872019027	 0.4646466565	-0.43136
H	 1.8313339573	-0.1076013409	-0.1798514609	 0.15137
H	 1.2991355696	 1.2508047657	 0.8577149611	 0.141186
H	 1.4137545836	-0.3767634084	 1.5237870318	 0.14718
H	-1.7717601877	 1.65945323	 2.1489403975	 0.306352
H	-1.669716632	-0.8650595945	-1.1818734384	 0.101616
H	-0.075215028	-1.235449701	-2.8621711737	 0.244215
H	-0.7260996419	-3.0408180313	-1.5571825069	 0.116586
H	 2.4353246012	-3.9656513522	 1.1004898223	 0.20091
54.6254	106.448	117.2044	184.1077	228.629	253.9065	308.9487	362.9078	398.9782	451.2047	526.4982	545.9741	598.7318	613.3626	663.7632	667.6531	765.5132	822.7812	875.2549	932.2769	977.6005	995.7706	1034.1831	1058.2204	1091.8551	1170.5728	1200.9592	1226.6217	1303.1386	1369.0484	1400.0956	1411.3069	1452.5859	1481.1244	1486.3088	1715.2008	2239.6502	3052.4704	3113.8669	3117.0253	3146.1811	3160.49	3503.6759	3513.6666	3819.7401
CC(=NO)C1NC1C#C	CC(=NO)[C@H]1N[C@H]1C#C	
InChI=1S/C6H8N2O/c1-3-5-6(7-5)4(2)8-9/h1,5-7,9H,2H3	InChI=1S/C6H8N2O/c1-3-5-6(7-5)4(2)8-9/h1,5-7,9H,2H3/t5-,6+/m0/s1
