13
gdb 27401	2.0583	1.81996	0.9659	6.6128	64.33	-0.2283	-0.0168	0.2116	1100.5907	0.0887	-493.754751	-493.747032	-493.746088	-493.786909	28.899	
O	 0.1087774598	 1.3118272004	 0.0070213644	-0.40052
C	-0.0230296221	-0.019639088	 0.0009774705	 0.483675
C	-1.1872147002	-0.6832254789	 0.0036644642	-0.398502
C	-1.2116713629	-2.1501914182	-0.0033571964	 0.417727
O	-2.2469166224	-2.7999520919	-0.001863577	-0.386928
C	 0.1199871253	-2.7660013238	-0.0137171181	-0.398502
C	 1.2237445984	-2.0061370625	-0.0156397156	 0.483676
O	 2.4800599105	-2.4663549384	-0.0246733956	-0.40052
O	 1.1940003269	-0.6402915886	-0.0084739205	-0.280547
H	 1.0474526368	 1.5357056259	 0.0029402439	 0.310185
H	-2.1177073693	-0.1331524545	 0.0111525153	 0.130035
H	 0.2107506909	-3.8431169351	-0.0197920459	 0.130035
H	 3.0897991984	-1.7183799865	-0.0238522494	 0.310186
161.3216	186.608	188.8486	258.5227	288.0382	331.6023	371.697	503.1848	507.1592	580.6251	628.3827	644.483	671.0985	723.7038	845.3506	864.5982	933.2395	942.518	1023.8984	1180.1043	1184.9907	1248.0389	1259.5109	1290.7696	1398.6813	1414.4083	1691.5331	1745.6004	1774.7257	3238.0692	3238.5165	3806.1738	3808.8813
OC1=CC(=O)C=C(O)O1	Oc1cc(=O)cc(O)o1	
InChI=1S/C5H4O4/c6-3-1-4(7)9-5(8)2-3/h1-2,7-8H	InChI=1S/C5H4O4/c6-3-1-4(7)9-5(8)2-3/h1-2,7-8H
