25
gdb 92363	2.06751	1.78715	1.42632	0.0816	90.75	-0.2769	0.0746	0.3515	1114.4926	0.231964	-352.393708	-352.385154	-352.38421	-352.42608	35.556	
C	-0.265167956	 1.5361159486	-0.0036701493	-0.42623
C	 0.0262513718	 0.035215603	 0.0025862476	 0.042195
C	 0.7642962159	-0.4828954448	-1.2769511605	-0.237115
C	 1.9328674265	-1.3180805167	-0.7075442534	-0.002468
C	 2.9886111579	-0.3480626975	-0.1313238948	-0.213737
C	 2.2899362221	 0.2086924428	 1.1481517909	-0.239998
C	 0.914601444	-0.5102700401	 1.1657554089	 0.332138
C	 0.2295011837	-0.5151201199	 2.524516914	-0.486766
C	 1.3081154617	-1.8892869089	 0.5806657032	-0.248414
H	 0.6420576768	 2.1303526436	-0.1547139363	 0.114889
H	-0.9539949795	 1.7876262837	-0.8174390571	 0.111335
H	-0.7303376939	 1.8651778666	 0.931925818	 0.111011
H	-0.9381022751	-0.4834049109	 0.0824605729	 0.061927
H	 0.100288246	-1.0954402953	-1.8951563883	 0.089153
H	 1.1212850413	 0.3390163058	-1.9075017075	 0.08736
H	 2.3415618285	-2.0448467603	-1.4128927626	 0.050422
H	 3.9102740634	-0.8802939862	 0.1242882516	 0.090384
H	 3.2571337026	 0.4369862047	-0.8449676689	 0.088856
H	 2.8541338424	-0.0527820281	 2.0497057585	 0.089037
H	 2.1951920326	 1.2975604397	 1.1443207089	 0.093094
H	 0.0003430071	 0.5009124548	 2.8656896885	 0.112147
H	-0.713555759	-1.0728320397	 2.4928857777	 0.107476
H	 0.8665073322	-0.9780013366	 3.2866056074	 0.10802
H	 0.4435213262	-2.5367242938	 0.3974345048	 0.082897
H	 2.0241974608	-2.4310811145	 1.208480926	 0.082385
101.0658	217.746	233.6282	245.3305	288.3454	312.146	371.6521	392.1334	454.6808	491.7712	533.242	586.3317	718.6162	767.947	818.868	829.3047	853.8871	897.2992	906.4919	923.4678	951.8816	964.1006	972.9665	1003.0709	1022.3013	1051.6417	1073.82	1108.211	1116.6676	1137.5106	1169.5085	1182.4475	1205.827	1238.0093	1256.082	1274.0001	1293.62	1303.6821	1311.2285	1334.9805	1341.4751	1360.2837	1380.8386	1408.0856	1415.4215	1484.5533	1491.4499	1493.0097	1495.5226	1499.3725	1502.0347	1508.1267	1524.5285	3005.526	3020.3757	3028.582	3034.1568	3037.4778	3039.3943	3050.8028	3074.3125	3077.3418	3081.5846	3084.2623	3087.0735	3089.0452	3091.9843	3095.8237	3102.3998
CC1CC2CCC1(C)C2	C[C@H]1C[C@H]2CC[C@]1(C)C2	
InChI=1S/C9H16/c1-7-5-8-3-4-9(7,2)6-8/h7-8H,3-6H2,1-2H3	InChI=1S/C9H16/c1-7-5-8-3-4-9(7,2)6-8/h7-8H,3-6H2,1-2H3/t7-,8+,9+/m0/s1
