23
gdb 120641	3.67771	0.81022	0.78127	0.6421	83.83	-0.2333	0.0849	0.3182	1625.7876	0.202023	-425.397513	-425.386546	-425.385602	-425.433828	39.46	
C	-0.104301478	 1.3824931173	 0.0901199366	-0.387104
C	-0.3123770379	-0.0593950328	-0.3386508628	-0.038242
O	-1.3015255957	-0.6379446134	 0.5037192518	-0.248717
C	-1.5446098506	-1.9778016754	 0.2235910224	 0.067266
C	-2.8211241327	-2.5639864559	 0.7575305806	-0.385483
C	-2.6302526563	-2.3816793768	-0.7413700635	 0.384944
C	-3.433395007	-1.3285831322	-1.4705554541	-0.462429
O	-2.3106985403	-3.5304840556	-1.478906991	-0.277918
C	-3.4036391111	-4.3943972408	-1.7229213088	-0.244825
H	 0.6619062324	 1.857253103	-0.5300022478	 0.115363
H	-1.0327312389	 1.9522872967	-0.0095042993	 0.125169
H	 0.214996495	 1.4295251839	 1.1350972902	 0.127695
H	-0.6300532967	-0.1143823055	-1.3906670473	 0.095809
H	 0.6265853353	-0.6296994178	-0.2531555589	 0.091804
H	-0.6615375078	-2.618458152	 0.2278832948	 0.091833
H	-2.7802690292	-3.5679211373	 1.1646229536	 0.115592
H	-3.4974755099	-1.8839841668	 1.2643023489	 0.121023
H	-3.4330333644	-0.3969650255	-0.9002639787	 0.133395
H	-2.9952622307	-1.1348935242	-2.4552824231	 0.120525
H	-4.4743404052	-1.6362709697	-1.6159901296	 0.114884
H	-3.0008210952	-5.284730736	-2.2119498476	 0.124844
H	-3.901686882	-4.6935399792	-0.789403035	 0.106125
H	-4.1538991232	-3.9404689939	-2.3853853813	 0.108448
59.6536	88.6831	104.4381	116.7753	183.8292	213.9275	227.9858	247.7844	270.5997	321.1743	343.5422	406.5749	442.3407	503.7976	582.2546	713.983	810.745	822.6942	884.3163	909.7252	926.6799	960.6672	1027.0345	1050.3242	1078.2617	1095.7878	1120.2774	1127.2796	1156.294	1180.9837	1187.3887	1206.962	1219.0348	1254.7527	1295.2649	1318.1685	1379.8323	1403.6066	1407.8401	1433.6889	1473.2117	1478.7181	1483.4301	1485.0599	1494.8332	1499.8286	1506.2413	1511.6722	1527.3162	2974.7562	2990.6786	3008.8095	3034.3915	3042.6005	3044.4807	3094.3359	3095.1796	3114.0827	3118.595	3121.324	3128.9183	3136.1237	3228.2738
CCOC1CC1(C)OC	CCO[C@H]1C[C@]1(C)OC	
InChI=1S/C7H14O2/c1-4-9-6-5-7(6,2)8-3/h6H,4-5H2,1-3H3	InChI=1S/C7H14O2/c1-4-9-6-5-7(6,2)8-3/h6H,4-5H2,1-3H3/t6-,7-/m0/s1
