19
gdb 50092	4.49014	0.80326	0.75385	0.9839	78.43	-0.244	-0.0389	0.2051	1512.6374	0.158782	-419.145627	-419.136705	-419.135761	-419.180374	32.319	
O	-0.0551727675	 0.2655583142	-1.0174880041	-0.259872
C	 0.0670477359	 1.2924507085	-0.3976118553	 0.157123
C	 1.2128107048	 1.5700560593	 0.5095804681	-0.089128
C	 1.727445077	 2.9835725174	 0.5607762714	-0.252963
N	 1.0650575983	 2.4088512781	 1.7062882247	-0.092003
C	-0.2506223095	 2.9176181019	 2.107245881	-0.183964
C	-0.1668308983	 3.6298674138	 3.4481693576	 0.013644
C	 0.6675819985	 3.1000624992	 4.5499797161	-0.227152
N	 1.0441524963	 4.3514673354	 3.8597572441	-0.319648
H	-0.6796303952	 2.112683694	-0.4839826152	 0.077929
H	 1.9074789567	 0.7403595074	 0.610832595	 0.118318
H	 2.7988269271	 3.1471184425	 0.6391628968	 0.137155
H	 1.1880377759	 3.7302813067	-0.0227503859	 0.126998
H	-0.6745114666	 3.6064653376	 1.3603598532	 0.103194
H	-0.9441432138	 2.0729192681	 2.1990330456	 0.124618
H	-1.0887141091	 4.1484140437	 3.7058550415	 0.092583
H	 0.3489490812	 3.2212376616	 5.5812302304	 0.115357
H	 1.2578167896	 2.2123302559	 4.3438180786	 0.122035
H	 1.7926764587	 4.1318155846	 3.2056532064	 0.235777
43.2033	86.2693	115.9452	157.1256	219.511	279.2223	348.987	395.635	436.7047	497.2576	579.5758	761.1718	794.3714	851.619	869.7322	898.4577	927.6835	948.011	992.469	1010.8709	1034.1417	1062.7841	1101.499	1115.6323	1121.3573	1144.9844	1159.5562	1181.4577	1204.035	1267.7907	1297.3198	1303.9449	1306.5305	1345.3817	1384.7751	1420.7872	1445.0229	1484.7312	1502.1145	1507.7379	1817.9999	2885.8632	2979.3635	3050.9444	3086.0237	3115.1175	3122.8202	3152.7042	3181.6666	3205.8264	3493.7174
O=CC1CN1CC1CN1	O=C[C@H]1CN1C[C@H]1CN1	
InChI=1S/C6H10N2O/c9-4-6-3-8(6)2-5-1-7-5/h4-7H,1-3H2	InChI=1S/C6H10N2O/c9-4-6-3-8(6)2-5-1-7-5/h4-7H,1-3H2/t5-,6-,8?/m1/s1
