14
gdb 124333	2.87805	1.59338	1.03221	4.4042	64.66	-0.2435	-0.0416	0.2019	1069.5056	0.101179	-470.065715	-470.057673	-470.056729	-470.098929	28.715	
C	 0.0032479746	 1.5413007534	-0.0211442574	-0.508886
C	-0.0081439222	 0.0298059163	 0.0980888159	 0.421198
O	-0.0182139896	-0.5568729082	 1.1447445785	-0.276038
N	-0.0060628776	-0.664865289	-1.1395117817	-0.214955
C	 0.0044709588	-0.1204569152	-2.4170974071	 0.063
N	 0.0031059313	-1.0149763263	-3.3456610441	-0.210189
N	-0.008845757	-2.2087539095	-2.6704920211	-0.317825
C	-0.0152092547	-2.0958580197	-1.2957716679	 0.498606
O	-0.0255468782	-2.9601531908	-0.4619225933	-0.37184
H	 0.8941453251	 1.8908652197	-0.5526182399	 0.152789
H	-0.8766841857	 1.9034740123	-0.5623521547	 0.152791
H	 0.0006211858	 1.9530327431	 0.9870605772	 0.163408
H	 0.0129326073	 0.9387992211	-2.6113932773	 0.160336
H	-0.0120739679	-3.0777059771	-3.1757501072	 0.287605
57.4677	123.3963	179.4081	205.5263	226.2444	347.7024	442.8403	463.361	531.3397	580.6628	656.4815	659.1392	755.1928	767.8393	833.3818	896.9378	957.2262	1054.9537	1084.1563	1085.9527	1198.5456	1263.1385	1285.0263	1368.6783	1390.3737	1392.5409	1472.2843	1482.9649	1630.9645	1817.2442	1895.7988	3046.1543	3111.4533	3169.2532	3286.8102	3691.9188
CC(=O)N1C=NNC1=O	CC(=O)n1cn[nH]c1=O	
InChI=1S/C4H5N3O2/c1-3(8)7-2-5-6-4(7)9/h2H,1H3,(H,6,9)	InChI=1S/C4H5N3O2/c1-3(8)7-2-5-6-4(7)9/h2H,1H3,(H,6,9)
