21
gdb 112659	2.59343	1.23582	1.01272	1.7582	78.51	-0.2438	-0.0246	0.2192	1276.7306	0.18097	-424.263652	-424.254023	-424.253079	-424.29867	35.366	
C	-0.5218720532	 1.2964650121	-0.290515938	-0.382806
C	-0.1857774389	-0.1956830839	-0.3144311776	-0.180592
C	 1.0347145622	-0.5192043152	-1.1835518109	 0.11331
C	 1.3141273916	-2.0216330008	-1.3040811698	-0.362281
C	 0.6731731165	-2.396332404	-2.636211501	 0.368919
O	 0.3722562721	-3.4953815255	-3.0208033048	-0.31053
C	 0.4703195085	-1.0924343347	-3.4141136984	 0.031728
C	-0.9573742129	-0.9421490846	-3.9391061539	-0.397772
O	 0.8588418777	-0.045307159	-2.5367045973	-0.284752
H	 0.3034317005	 1.8789642824	 0.1341826074	 0.114134
H	-0.7020365008	 1.6650237757	-1.3034044146	 0.134278
H	-1.4131687776	 1.4911505842	 0.3129443405	 0.111756
H	 0.0195775017	-0.5541414632	 0.7028588886	 0.097842
H	-1.0487866287	-0.7716708226	-0.6747107551	 0.097837
H	 1.90131637	 0.0247338987	-0.7911043376	 0.08335
H	 2.3883582527	-2.2275070883	-1.3807696265	 0.137154
H	 0.9147580066	-2.6282954909	-0.489077729	 0.134704
H	 1.1644988081	-1.0984890141	-4.2680532143	 0.10708
H	-1.6809036253	-0.9355299434	-3.1188744949	 0.122684
H	-1.0584366364	-0.0079800341	-4.4970532233	 0.126569
H	-1.1909469145	-1.7813333988	-4.6004567897	 0.137389
54.9026	67.7798	119.2805	208.5119	215.2139	232.0425	240.6765	355.7762	386.4649	436.8989	487.1132	540.2079	649.2975	704.0571	763.6703	772.2617	822.0021	869.1459	927.7779	949.0666	1009.488	1024.1818	1038.3562	1081.349	1114.1646	1119.0477	1137.0747	1184.6101	1211.7881	1257.6043	1294.5406	1307.8143	1322.9046	1353.3878	1372.7069	1396.2446	1403.4962	1408.4781	1450.5902	1475.8385	1487.1604	1495.1269	1495.4134	1509.2493	1853.3294	2993.0962	3013.9632	3033.7281	3037.3882	3045.2877	3048.3572	3058.4129	3102.9816	3119.514	3122.3102	3125.9508	3129.7171
CCC1CC(=O)C(C)O1	CC[C@H]1CC(=O)[C@@H](C)O1	
InChI=1S/C7H12O2/c1-3-6-4-7(8)5(2)9-6/h5-6H,3-4H2,1-2H3	InChI=1S/C7H12O2/c1-3-6-4-7(8)5(2)9-6/h5-6H,3-4H2,1-2H3/t5-,6+/m1/s1
