18
gdb 95918	2.30445	1.51787	1.19171	2.1195	71.84	-0.263	0.0116	0.2746	1097.4895	0.146854	-439.098842	-439.089622	-439.088678	-439.133026	33.418	
C	-0.504870533	 1.339285652	 0.0591200363	-0.424977
C	 0.1077950337	-0.0520425962	-0.0558759491	-0.01566
C	 1.2075168852	-0.2081107951	-1.1142000137	-0.089393
O	 1.9559453373	-1.3676634501	-0.7488305334	-0.263714
C	 1.6906464761	-1.7145591015	 0.5985806268	-0.095992
C	 0.8695599938	-0.5494127517	 1.1973470605	 0.196344
O	 1.6967224122	 0.5149020136	 1.6385580137	-0.454641
C	-0.0214622835	-0.9928972834	 2.2834117083	 0.237352
N	-0.6999565519	-1.3380790888	 3.1531021725	-0.335658
H	 0.2570705886	 2.0826733327	 0.3019608234	 0.144374
H	-0.9796004335	 1.623240083	-0.8850672071	 0.121763
H	-1.271132725	 1.3664551005	 0.8393307756	 0.136535
H	-0.6773292096	-0.7893534764	-0.2588982637	 0.103467
H	 0.8020976529	-0.3566872515	-2.1198502517	 0.11206
H	 1.8615404881	 0.6744234886	-1.1259417	 0.110064
H	 1.1270600979	-2.6564186972	 0.6512849213	 0.114677
H	 2.6327377234	-1.8465945388	 1.145286838	 0.107283
H	 2.2475154974	 0.1987179103	 2.3632012022	 0.296114
57.5375	119.919	140.0584	195.8652	208.5029	260.483	288.8012	330.5726	383.8133	483.6295	497.5496	575.0699	591.4997	660.8858	762.0754	903.3515	921.0961	952.0419	966.3166	1016.128	1050.7082	1091.9379	1107.8671	1149.9425	1171.9466	1181.0484	1209.7333	1258.8614	1326.1919	1341.1127	1363.8638	1377.0871	1412.2103	1420.7333	1494.3861	1501.4682	1509.2009	1524.1327	2352.4203	3004.2455	3014.0559	3045.4398	3047.9518	3050.0678	3079.727	3111.9272	3137.1526	3810.7141
CC1COCC1(O)C#N	C[C@H]1COC[C@]1(O)C#N	
InChI=1S/C6H9NO2/c1-5-2-9-4-6(5,8)3-7/h5,8H,2,4H2,1H3	InChI=1S/C6H9NO2/c1-5-2-9-4-6(5,8)3-7/h5,8H,2,4H2,1H3/t5-,6+/m0/s1
