15
gdb 128606	2.80351	1.547	1.00329	6.1421	75.6	-0.2107	-0.0433	0.1675	1115.4541	0.11364	-450.082603	-450.074691	-450.073747	-450.115305	29.268	
C	-0.0590120981	 1.3826850964	 0.0889811031	-0.251669
O	 0.000255304	-0.0310697403	 0.0044626754	-0.226729
C	 0.6096686651	-0.5635293018	-1.0636700666	 0.298184
C	 1.1800379475	 0.1241270002	-2.0803459662	-0.106191
N	 1.7674390253	-0.5898224349	-3.1068847847	-0.241982
N	 1.8173045225	-1.926339801	-3.1750214908	-0.04074
N	 1.2966661136	-2.6109131674	-2.2461619437	-0.278142
C	 0.6514611473	-2.026728758	-1.1165654317	 0.316473
N	 0.1370122266	-2.7503614863	-0.1981650954	-0.513625
H	 0.9465964187	 1.8222263913	 0.1234936115	 0.126591
H	-0.6108895938	 1.8096794822	-0.7588059259	 0.126591
H	-0.5858705159	 1.6094400713	 1.0157937077	 0.15208
H	 1.2197770572	 1.199803706	-2.1659914802	 0.136265
H	 2.2059262032	-0.1293419927	-3.8871963023	 0.280726
H	 0.2856908266	-3.7318670452	-0.4461822103	 0.222167
76.3181	128.0835	224.9955	239.5321	328.5797	348.586	388.5705	451.4372	510.9285	540.5754	606.1045	628.3037	774.6985	787.2897	811.527	908.4684	922.5494	1003.5071	1050.9616	1087.0822	1176.1456	1202.2227	1228.861	1294.1986	1313.9967	1395.9638	1456.9608	1490.7868	1491.0559	1504.152	1569.7878	1673.0525	1703.4014	3002.9578	3063.0512	3150.1872	3238.5582	3449.6953	3658.9073
COC1=CNN=NC1=N	COc1c[nH]nnc1[NH]	
InChI=1S/C4H6N4O/c1-9-3-2-6-8-7-4(3)5/h2H,1H3,(H2,5,6,7)	InChI=1S/C4H11N4O/c1-9-3-2-6-8-7-4(3)5/h3-8H,2H2,1H3
