21
gdb 101764	3.31928	0.80717	0.74916	6.7905	75.79	-0.2366	0.0294	0.2659	1579.2688	0.182862	-457.570605	-457.56044	-457.559496	-457.60649	36.885	
C	-0.6100416485	 1.3754127179	 0.2127648218	-0.399612
C	-0.1173369314	-0.0604390636	 0.0324915161	 0.073337
C	 0.7214305165	-0.5192990944	 1.2321992135	-0.171438
N	 1.1759266078	-1.9007122327	 1.0367658263	-0.516534
N	-1.2271626526	-1.0102403179	-0.1273216053	-0.314551
H	-0.8434477869	-1.9353708304	 0.0419066647	 0.241954
H	-2.9110503934	-0.4292940214	 0.536138566	 0.294954
C	-1.9476731875	-0.950368933	-1.3975437102	-0.314528
C	-3.2979094083	-0.2262807687	-1.2565628799	 0.424115
O	-3.668974839	-0.0661171275	 0.0210616389	-0.363775
O	-3.9605436205	 0.1309311544	-2.1928674656	-0.341614
H	 0.2394249873	 2.0573614582	 0.3196830495	 0.11692
H	-1.1957913179	 1.7123842391	-0.6469187267	 0.136786
H	-1.2393042973	 1.464259127	 1.1042134802	 0.125586
H	 0.5330696459	-0.0892667056	-0.8628086574	 0.063189
H	 1.5362855284	 0.2036591217	 1.3909477417	 0.092216
H	 0.0880414343	-0.498045188	 2.1265920758	 0.113283
H	 1.9536263853	-1.9273753312	 0.3840351772	 0.23297
H	 1.5165372688	-2.2908768102	 1.9085295818	 0.238429
H	-1.3814369423	-0.463820969	-2.2019050459	 0.129277
H	-2.1762816889	-1.9644184748	-1.7435082524	 0.139036
54.3274	60.4556	114.5174	147.0346	209.2641	238.1054	256.1197	281.6671	335.4212	394.2831	460.4118	495.3955	555.021	576.1133	666.9019	802.2425	825.8032	857.1058	872.5999	904.4248	923.2776	963.1329	1005.9958	1048.2255	1077.9943	1106.8361	1140.1649	1172.3371	1214.1141	1229.984	1278.0256	1319.4368	1333.9865	1357.0959	1386.3878	1409.5611	1424.8134	1437.1079	1463.6508	1484.2448	1497.9642	1498.5204	1503.1797	1658.3486	1875.6529	2913.8073	2983.2663	3027.5934	3039.5606	3065.0203	3079.213	3110.5041	3115.9607	3420.3885	3501.2666	3510.4965	3582.7006
CC(CN)[NH2+]CC([O-])=O	C[C@@H](CN)NCC(=O)O	
InChI=1S/C5H12N2O2/c1-4(2-6)7-3-5(8)9/h4,7H,2-3,6H2,1H3,(H,8,9)	InChI=1S/C5H12N2O2/c1-4(2-6)7-3-5(8)9/h4,7H,2-3,6H2,1H3,(H,8,9)/t4-/m0/s1
