18
gdb 81527	2.2631	1.90857	1.22962	4.0469	73.28	-0.2381	-0.0071	0.231	1028.166	0.146103	-439.010558	-439.002115	-439.001171	-439.043243	32.417	
C	-0.1222144454	 1.493733589	-0.0086368149	-0.47538
C	-0.0240911679	-0.0323976823	 0.0145102139	 0.295346
C	-1.3962979032	-0.5945836069	-0.3174978571	 0.102202
O	-2.3281923572	-0.5342786366	 0.4438653967	-0.272908
C	 1.2484325844	-0.7018359142	-0.6041563037	-0.146549
N	 2.0305313788	-0.1089654242	 0.552361874	-0.328235
C	 0.7808489375	-0.7048020632	 1.1790272294	-0.089178
C	 0.9785149988	-1.9549234972	 0.289216404	 0.11465
O	-0.1420184313	-2.7719992206	 0.0805926247	-0.414008
H	 0.8396445072	 1.9433918233	 0.2361508821	 0.148406
H	-0.43577822	 1.8458067555	-0.9983101345	 0.113926
H	-0.8771925633	 1.8211742947	 0.7117015933	 0.137793
H	-1.5240227935	-0.9688311688	-1.3583606913	 0.06187
H	 1.6161180211	-0.6501291506	-1.6312766851	 0.079743
H	 2.833769283	-0.7109958831	 0.7626231312	 0.210762
H	 0.5836175123	-0.6525093843	 2.2495559618	 0.095669
H	 1.877058471	-2.5412923481	 0.5263249282	 0.073678
H	 0.0451393578	-3.3799361126	-0.6427198627	 0.292212
97.6943	153.1104	230.859	235.4444	269.0478	317.8997	351.3324	356.6816	381.0722	486.8747	603.8041	650.2277	703.8257	785.5959	850.85	872.7125	897.7962	910.5486	946.6287	979.0124	1042.1524	1088.6198	1114.4778	1124.428	1141.4078	1154.3304	1162.2174	1191.472	1244.4855	1269.6249	1282.1341	1291.7723	1322.3232	1388.9939	1417.4109	1424.5191	1492.6289	1503.3169	1817.5349	2863.2127	3011.1519	3037.8873	3093.1968	3103.5673	3125.2329	3156.0749	3376.2729	3810.1833
CC1(C=O)C2NC1C2O	C[C@@]1(C=O)[C@H]2N[C@@H]1[C@H]2O	
InChI=1S/C6H9NO2/c1-6(2-8)4-3(9)5(6)7-4/h2-5,7,9H,1H3	InChI=1S/C6H9NO2/c1-6(2-8)4-3(9)5(6)7-4/h2-5,7,9H,1H3/t3-,4-,5+,6+
