19
gdb 83555	3.00662	1.35323	1.15326	1.2692	81.75	-0.2361	0.0466	0.2827	1127.9565	0.159415	-385.835114	-385.827026	-385.826082	-385.86738	32.127	
C	-0.0215710791	 1.7118826617	 0.0378967899	-0.441443
C	 0.0212912459	 0.1944749143	-0.0049291572	 0.0177
C	 0.8242572318	-0.5840236869	-1.1074442724	-0.086893
C	 2.2321677102	-0.0251599069	-0.8946213187	-0.106113
O	 2.296360313	-0.0391628172	 0.5534131988	-0.278366
C	 1.0151725193	-0.5788954716	 0.9002018565	 0.088415
C	 0.8794196291	-1.7881980948	-0.0879784999	-0.197448
C	-0.3061238097	-2.6077899526	 0.0166249431	 0.306299
C	-1.2781183286	-3.3109806423	 0.1090675558	-0.440011
H	 0.9776884303	 2.1433189202	 0.1358735959	 0.134144
H	-0.4884582198	 2.1204942109	-0.8650889309	 0.11609
H	-0.6120908413	 2.052497199	 0.8950418572	 0.119159
H	-0.9792837905	-0.2333996587	 0.0786155115	 0.096917
H	 0.4633918038	-0.7083683074	-2.1272984445	 0.08029
H	 3.022934257	-0.6602271878	-1.3096262392	 0.104597
H	 2.3628095729	 0.9952666215	-1.2702891326	 0.105229
H	 0.9295899752	-0.6757028699	 1.9810805813	 0.087551
H	 1.7791534957	-2.4082509706	-0.1460687692	 0.102075
H	-2.1366943754	-3.9303507409	 0.1903612345	 0.19181
137.5406	147.0505	177.4417	253.5514	285.8045	382.1095	398.2197	473.6257	495.7075	607.968	612.8187	643.3239	687.2703	748.3626	806.6924	876.8395	908.7206	926.5867	945.2368	964.4261	1008.3689	1039.0965	1059.5974	1070.1006	1080.8543	1111.1948	1157.5221	1171.9784	1199.3622	1214.7595	1242.8883	1272.8657	1279.1326	1344.172	1372.4093	1399.9659	1413.7658	1490.9941	1502.6808	1532.955	2230.7778	3031.7783	3035.8925	3062.8118	3072.4802	3093.9092	3098.4635	3123.0442	3133.9596	3143.7614	3504.1823
CC1C2COC1C2C#C	C[C@H]1[C@H]2CO[C@@H]1[C@H]2C#C	
InChI=1S/C8H10O/c1-3-6-7-4-9-8(6)5(7)2/h1,5-8H,4H2,2H3	InChI=1S/C8H10O/c1-3-6-7-4-9-8(6)5(7)2/h1,5-8H,4H2,2H3/t5-,6-,7+,8-/m0/s1
