12
gdb 130101	5.63821	1.40843	1.12797	1.4546	62.77	-0.2212	-0.0247	0.1965	968.0146	0.081169	-464.982659	-464.976374	-464.97543	-465.013247	24.123	
N	-0.0312287806	 1.2815989378	 0.1751418607	-0.575991
C	 0.0044975044	-0.0859822408	 0.0830221661	 0.413463
N	-1.115749701	-0.8251637911	 0.0573750786	-0.344477
N	-0.5591936347	-2.0685925414	 0.0370314788	 0.087464
N	-1.0008763661	-3.3560026697	-0.0000203518	-0.211182
C	 0.1118496527	-4.0178662057	-0.0145432397	 0.06608
O	 1.2577493422	-3.2484310752	 0.0084965017	-0.205324
C	 0.7750300307	-1.9894008831	 0.0410849227	 0.493028
N	 1.2155288604	-0.757194647	 0.068922715	-0.439847
H	 0.795232077	 1.7383324568	-0.1788761655	 0.266615
H	-0.8981857561	 1.7001693724	-0.1262272623	 0.266368
H	 0.233927721	-5.086145123	-0.0417876045	 0.183804
144.2489	292.4325	313.8568	353.6921	364.7093	557.7033	573.7558	619.7298	629.4572	726.2141	762.677	783.5167	796.2633	889.3178	955.3861	999.1624	1072.389	1098.8511	1175.5252	1287.1568	1363.4292	1405.4824	1460.3528	1554.5099	1560.4302	1641.7727	1648.6184	3318.9268	3584.1854	3695.2978
NC1=NN2N=COC2=N1	Nc1nn2ncoc2n1	
InChI=1S/C3H3N5O/c4-2-6-3-8(7-2)5-1-9-3/h1H,(H2,4,7)	InChI=1S/C3H3N5O/c4-2-6-3-8(7-2)5-1-9-3/h1H,(H2,4,7)
