20
gdb 71640	3.09569	1.86231	1.62185	1.8567	80.59	-0.2177	0.0802	0.2979	923.0238	0.173476	-365.964967	-365.958184	-365.95724	-365.995522	29.152	
C	-0.0106348296	 1.5415623695	-0.0348166958	-0.491944
C	-0.0028486911	 0.0254826392	-0.0002001542	 0.320809
C	-1.3234618107	-0.7140031963	 0.3833644514	-0.273373
C	-0.4646765407	-1.709859598	 1.1677681918	 0.034921
C	 0.7260252536	-0.7297048992	 1.2082085223	-0.108726
C	 1.5901360936	-1.8559557957	 0.6189497912	-0.050572
C	 1.0674717661	-1.9861913757	-0.7508697106	-0.026042
C	 0.5533622099	-0.6570898938	-1.2618212842	-0.274162
N	 0.3581869825	-2.7032431836	 0.3549484909	-0.180651
H	 0.9998504784	 1.939878182	-0.1827627542	 0.113982
H	-0.6382004065	 1.9144205673	-0.8530930077	 0.116525
H	-0.4034153007	 1.9586314237	 0.8988002692	 0.112144
H	-1.9395916008	-0.1227644672	 1.0697571342	 0.095021
H	-1.9502333837	-1.0868130495	-0.432860237	 0.09572
H	-0.8632219758	-2.2183440666	 2.0466603831	 0.074294
H	 1.025655408	-0.154604199	 2.081738981	 0.064059
H	 2.5124515017	-2.2741225209	 1.0068711787	 0.089275
H	 1.5225175959	-2.6868995515	-1.4442671541	 0.092255
H	-0.2143614095	-0.7524889427	-2.0376400043	 0.101289
H	 1.3925697595	-0.0956033319	-1.6939343717	 0.095176
213.0426	237.8131	260.5781	357.0332	412.5408	461.4113	553.9471	634.6935	677.3898	721.5867	740.34	765.8513	838.5868	862.852	883.7291	900.8822	919.1314	949.5306	967.8736	980.5864	998.7816	1014.8383	1039.9556	1058.1339	1112.2086	1125.6389	1154.2599	1175.398	1193.9767	1218.4118	1238.9654	1250.2721	1263.0923	1267.2642	1304.1411	1319.7826	1347.4062	1398.5112	1411.6275	1474.6908	1491.9544	1492.3547	1496.9856	3015.0662	3020.1304	3034.7302	3065.0065	3083.8308	3088.3077	3091.9678	3095.9237	3134.0572	3157.7505	3172.374
CC12CC3C1C1C(C2)N31	C[C@]12C[C@@H]3[C@H]1[C@@H]1[C@H](C2)N31	
InChI=1S/C8H11N/c1-8-2-4-6(8)7-5(3-8)9(4)7/h4-7H,2-3H2,1H3	InChI=1S/C8H11N/c1-8-2-4-6(8)7-5(3-8)9(4)7/h4-7H,2-3H2,1H3/t4-,5+,6+,7+,8-,9?/m1/s1
