12
gdb 132481	3.25155	1.43619	0.99618	3.1254	62.67	-0.2316	-0.0482	0.1834	1049.0413	0.077847	-513.9424	-513.935416	-513.934472	-513.974042	26.313	
O	-0.1323613322	 1.2766570214	 0.0101352833	-0.375843
C	 0.0539796937	-0.039279015	 0.0021920743	 0.510839
N	 1.217704365	-0.5743295908	-0.006929721	-0.402484
C	 1.2377317491	-1.9604427917	-0.014297505	-0.128662
C	 0.1132928058	-2.6985021706	-0.012049227	 0.183713
F	 0.134566797	-4.0247140581	-0.0191176273	-0.048934
C	-1.1954374966	-2.0737034842	-0.0016521115	 0.313427
N	-2.3021923288	-2.6763047926	 0.0012070954	-0.52397
O	-1.1290089221	-0.6640937175	 0.0053662576	-0.23022
H	 0.7489476522	 1.6761339282	 0.0074472287	 0.325189
H	 2.2124177038	-2.4343540084	-0.0220820963	 0.138703
H	-3.084734977	-2.0229928708	 0.0088855688	 0.238242
119.1387	154.2292	306.1328	360.0165	383.6586	408.0078	471.9866	529.2036	548.3802	597.6978	731.9811	757.2525	758.2742	796.2229	846.1154	942.9369	977.2657	1027.3942	1165.2659	1207.5942	1293.8019	1306.3663	1400.3277	1468.7249	1657.0623	1686.8388	1773.7152	3204.8219	3507.7369	3782.8798
OC1=NC=C(F)C(=N)O1	OC1=NCC(=C([NH])O1)F	
InChI=1S/C4H3FN2O2/c5-2-1-7-4(8)9-3(2)6/h1,6H,(H,7,8)	InChI=1S/C4H4FN2O2/c5-2-1-7-4(8)9-3(2)6/h6H,1H2,(H,7,8)
