18
gdb 62314	3.97903	1.29072	1.13073	1.8494	82.71	-0.2224	0.0273	0.2497	1108.2567	0.145871	-364.672135	-364.66391	-364.662966	-364.704528	32.724	
C	-0.0606859176	 1.5987779314	 0.0239271858	-0.502927
C	 0.0243331915	 0.0705090755	-0.0686697316	 0.103596
C	-1.0839375479	-0.570444565	 0.6127600299	 0.29592
C	-2.0286317808	-1.0771398509	 1.1568055282	-0.4217
C	 0.556210943	-0.7945117899	-1.1764085174	-0.070176
C	 1.8167674167	-0.3654962776	-1.9437205575	-0.082866
C	 2.40373484	 0.9431098192	-1.4993783678	-0.30801
C	 2.4853932329	-0.2552469731	-0.5892605433	-0.010308
N	 1.2602585628	-0.766696314	 0.1465215259	-0.170696
H	-0.1924236844	 2.0661823256	-0.9545261598	 0.139099
H	-0.922729815	 1.8650370563	 0.6375467147	 0.136148
H	 0.8262614778	 2.0184105014	 0.502599825	 0.145456
H	-2.8531496375	-1.5309302008	 1.6483233911	 0.193631
H	-0.0018371193	-1.6773580723	-1.4753095422	 0.10598
H	 2.1444749127	-0.8895418227	-2.8315724544	 0.100399
H	 3.3647170729	 1.1423578465	-1.9678454742	 0.117626
H	 1.829408162	 1.8365045673	-1.3176948065	 0.119924
H	 3.4308645	-0.6443790567	-0.2342065759	 0.108905
84.6111	156.1731	187.0904	266.5322	307.5728	350.8441	416.5736	513.4489	524.8962	578.2618	609.0441	643.4785	664.2065	696.0435	732.9595	767.9776	848.8602	878.0762	892.4254	950.0688	989.5299	1004.6874	1016.0976	1057.0224	1068.0101	1079.0707	1086.2633	1091.2665	1179.3019	1215.4244	1270.7787	1279.2081	1333.5289	1369.1238	1411.129	1484.8489	1505.68	1514.4676	2235.5474	3056.3047	3130.7987	3135.0808	3138.5827	3146.6925	3191.154	3203.5568	3264.1959	3503.3414
CC1(C#C)C2C3CC3N12	C[C@@]1(C#C)[C@H]2[C@H]3C[C@H]3N12	
InChI=1S/C8H9N/c1-3-8(2)7-5-4-6(5)9(7)8/h1,5-7H,4H2,2H3	InChI=1S/C8H9N/c1-3-8(2)7-5-4-6(5)9(7)8/h1,5-7H,4H2,2H3/t5-,6+,7+,8+,9?/m0/s1
