14
gdb 27749	2.4424	1.48773	0.92548	4.682	72.74	-0.2058	-0.0278	0.178	1170.3257	0.101878	-470.061252	-470.053076	-470.052132	-470.093831	30.514	
N	 0.0420898998	 1.2815882578	 0.14265045	-0.587136
C	-0.0390393568	-0.0660792301	 0.042956431	 0.493029
N	-1.1411780435	-0.7769568738	-0.0069182683	-0.387539
C	-0.6841802298	-2.0724799099	-0.0419019045	 0.249893
N	-1.5768536609	-3.0985381545	-0.1484845698	-0.591916
C	 0.7007512479	-2.0985423899	-0.0126701614	 0.17656
O	 1.1016870196	-0.7499107796	 0.0422665912	-0.206525
C	 1.6668514415	-3.1434223635	-0.0299083767	 0.042422
O	 2.879096209	-3.0256017285	-0.0015448858	-0.322457
H	 0.9228429753	 1.7065571279	-0.0977421597	 0.280374
H	-0.7903640326	 1.7917532802	-0.1021550902	 0.280937
H	-2.5203985161	-2.8660566182	 0.1202350006	 0.267807
H	-1.2702203143	-4.0180245088	 0.1237390544	 0.266144
H	 1.1859674808	-4.1513360191	-0.0756502207	 0.038407
125.1351	155.4662	218.7384	235.699	297.5802	387.6038	390.5209	420.5424	432.4758	449.7107	479.4011	578.1257	658.9475	707.2712	720.0102	775.1478	866.393	999.6422	1034.3805	1057.3703	1136.0922	1160.5579	1320.8737	1382.5456	1459.499	1497.1436	1587.6956	1615.9054	1661.9989	1691.1886	1762.348	2817.8672	3592.9669	3607.6442	3707.1171	3727.6343
NC1=NC(N)=C(O1)C=O	Nc1nc(N)c(o1)C=O	
InChI=1S/C4H5N3O2/c5-3-2(1-8)9-4(6)7-3/h1H,5H2,(H2,6,7)	InChI=1S/C4H5N3O2/c5-3-2(1-8)9-4(6)7-3/h1H,5H2,(H2,6,7)
