22
gdb 87131	2.05273	1.56064	1.32227	2.6465	81.5	-0.2193	0.0728	0.2921	1135.6001	0.193269	-404.310754	-404.301211	-404.300267	-404.344475	37.42	
C	 0.1210356558	 1.0559273184	-1.1372273064	-0.476437
C	-0.0376671379	 0.0062483782	-0.0532729743	 0.272507
C	 1.1522804207	-0.7876123016	 0.3535895898	-0.282157
N	 0.6386469799	 0.279439047	 1.2381118103	-0.373671
C	-1.4217975338	-0.5986074735	 0.0639928849	 0.244719
C	-1.9762955895	-1.1994075202	-1.2152797389	-0.472583
C	-1.8129645582	-1.2832537866	 1.3689955802	-0.391607
C	-2.390136863	 0.064022255	 1.0256484844	 0.106041
O	-2.037694041	 1.203366647	 1.7493244716	-0.436261
H	 1.1412119895	 1.4540630247	-1.1489534468	 0.106833
H	-0.0838345815	 0.6486971453	-2.1314567199	 0.128346
H	-0.5720410128	 1.8857898271	-0.962110356	 0.140448
H	 1.0210952924	-1.7959202109	 0.7350730711	 0.122464
H	 2.0954302351	-0.6113201122	-0.1562852649	 0.112665
H	 1.2219891662	 1.1071674793	 1.1432414	 0.232327
H	-1.3279967622	-1.999642916	-1.5934350246	 0.114299
H	-2.9637879173	-1.6354092501	-1.0364419992	 0.115984
H	-2.0896396788	-0.4542788955	-2.0097308715	 0.117784
H	-2.4425655789	-2.1654155184	 1.3091281692	 0.102569
H	-1.0794372595	-1.3006030614	 2.167957407	 0.126493
H	-3.4336404632	 0.119427252	 0.7286707935	 0.095312
H	-1.1355031219	 1.0553510224	 2.0668657307	 0.293923
63.2673	174.5019	199.8163	219.5568	229.6421	256.3313	309.4846	360.6714	366.5123	418.4802	459.177	495.8533	524.763	588.6589	601.895	794.907	823.0174	850.4242	872.8339	921.9825	936.3567	961.8402	982.4124	1004.261	1042.4947	1053.9668	1056.7641	1108.1424	1115.3417	1126.9634	1144.2038	1166.4718	1225.2073	1269.0776	1279.0608	1345.6224	1354.269	1393.0474	1410.3361	1415.4407	1459.2848	1483.1514	1486.4921	1494.233	1501.4929	1505.7694	1511.5799	3021.9567	3031.9639	3083.0916	3099.2148	3101.0126	3109.7023	3111.6362	3124.2851	3148.9277	3198.8397	3216.0931	3497.8819	3725.7023
CC1(CN1)C1(C)CC1O	C[C@]1(CN1)[C@@]1(C)C[C@H]1O	
InChI=1S/C7H13NO/c1-6(3-5(6)9)7(2)4-8-7/h5,8-9H,3-4H2,1-2H3	InChI=1S/C7H13NO/c1-6(3-5(6)9)7(2)4-8-7/h5,8-9H,3-4H2,1-2H3/t5-,6+,7+/m1/s1
