12
gdb 48000	3.21848	0.82363	0.68963	3.3849	72.08	-0.2846	-0.0885	0.1961	1508.0302	0.074927	-435.434407	-435.425741	-435.424796	-435.469669	28.57	
O	-0.138792465	 0.0649471371	 0.4902452655	-0.216457
C	 0.0688477782	 1.0138373097	-0.2276340243	 0.024379
C	 1.2679223116	 1.8189112839	-0.1693298023	 0.093947
C	 2.2533581585	 2.515366192	-0.1429814108	 0.132036
C	 3.4425157592	 3.3110348979	-0.078250185	-0.16989
O	 3.7348127099	 4.1731261065	-1.1858208164	-0.203074
C	 3.3827337778	 4.7964359111	 0.0392049324	-0.092849
C	 2.1153383681	 5.4923158696	 0.0867378942	 0.316458
N	 1.1172678256	 6.0705058691	 0.1491272899	-0.308405
H	-0.6582596281	 1.3417409475	-0.9956271074	 0.119087
H	 4.318067379	 2.828165267	 0.3529712149	 0.148386
H	 4.1952805154	 5.2982608985	 0.5616670793	 0.156383
39.9558	63.1274	102.0472	162.4572	210.7289	241.5009	297.0816	452.881	500.6577	555.137	599.7966	663.2361	774.4979	845.772	896.3747	964.2604	1018.687	1067.2812	1113.8966	1166.5429	1270.1843	1367.3821	1414.1846	1418.5058	1770.5284	2334.4162	2367.4417	2943.873	3127.8107	3138.8925
O=CC#CC1OC1C#N	O=CC#C[C@H]1O[C@H]1C#N	
InChI=1S/C6H3NO2/c7-4-6-5(9-6)2-1-3-8/h3,5-6H	InChI=1S/C6H3NO2/c7-4-6-5(9-6)2-1-3-8/h3,5-6H/t5-,6+/m1/s1
