21
gdb 87575	2.48955	1.42946	1.18746	1.6778	82.42	-0.2442	0.0821	0.3263	1169.4455	0.181121	-387.050005	-387.04104	-387.040096	-387.083335	34.542	
C	 0.0879732584	 1.6105449623	-0.0760291897	-0.414947
C	-0.0530310261	 0.1206537277	 0.0945770331	-0.02825
O	 1.1421566119	-0.6706838322	-0.0827593525	-0.312702
C	 0.5573708523	-0.6147943599	 1.2067654475	 0.439757
C	 1.3048745965	-0.1090731953	 2.4240427338	-0.150088
C	 0.330386388	 0.0183296707	 3.5676799658	-0.287233
C	 0.8413945766	-1.3458998969	 3.2027782004	-0.065191
C	 0.1302130369	-1.9032055106	 1.9506718398	-0.074264
C	-1.3360788124	-2.3089643735	 2.0285831512	-0.415235
H	 0.9543171349	 1.9858817225	 0.4743295529	 0.126378
H	 0.2118687906	 1.8698272737	-1.1327693614	 0.127516
H	-0.8075275788	 2.1229893557	 0.292500198	 0.119358
H	-0.9309114715	-0.3217598736	-0.380779196	 0.083805
H	 2.2733735464	 0.3742752419	 2.4123592451	 0.097189
H	 0.7401764906	 0.4389583737	 4.4805309422	 0.114223
H	-0.7020225914	 0.301312324	 3.3786174346	 0.108722
H	 1.4100908237	-1.9439915352	 3.9040648629	 0.088145
H	 0.7237547488	-2.7221332597	 1.5293659439	 0.092461
H	-1.9571156884	-1.5117601775	 2.4489330716	 0.114121
H	-1.7289999637	-2.55090813	 1.0350756628	 0.119539
H	-1.4617197432	-3.196469428	 2.6581978039	 0.116695
107.4951	137.9644	171.2006	186.6247	206.3453	258.7445	276.9192	434.009	452.6251	479.5828	546.288	600.1906	710.7314	782.2762	794.7505	815.621	916.3789	918.4179	924.5584	938.907	986.9383	1008.7929	1033.3368	1062.2114	1085.6735	1090.5518	1106.8303	1125.2999	1130.908	1159.5746	1172.2901	1197.7593	1235.9113	1286.888	1338.3722	1358.1363	1365.5973	1408.315	1410.1778	1473.3841	1484.7957	1489.9286	1494.0643	1499.1516	1522.4034	3030.9829	3035.3187	3050.297	3084.8592	3094.8961	3098.0248	3103.9257	3112.4414	3125.2643	3182.8799	3193.1359	3204.0581
CC1OC11C2CC2C1C	C[C@H]1O[C@]21[C@H]1C[C@H]1[C@H]2C	
InChI=1S/C8H12O/c1-4-6-3-7(6)8(4)5(2)9-8/h4-7H,3H2,1-2H3	InChI=1S/C8H12O/c1-4-6-3-7(6)8(4)5(2)9-8/h4-7H,3H2,1-2H3/t4-,5-,6+,7+,8-/m1/s1
