17
gdb 46562	3.2255	1.72047	1.37533	4.2548	74.4	-0.2483	0.0265	0.2747	948.0899	0.138903	-417.92528	-417.918706	-417.917762	-417.956072	27.016	
N	 0.0508739023	 1.34159445	-0.1500703141	-0.550937
C	-0.0210060093	 0.0945282503	 0.0073366573	 0.422752
O	 1.0915696936	-0.7398934657	 0.0696964876	-0.264503
C	 0.7540554998	-2.1239304052	 0.3427320669	-0.192118
C	-0.6834714929	-2.0055468242	 0.7746308336	 0.288856
C	-2.1171191696	-2.599551737	 0.8348723581	-0.321631
C	-2.1825879827	-1.0769661052	 1.2357361471	-0.045547
N	-0.9384756761	-1.2385775047	 2.0735845375	-0.336699
C	-1.2415392905	-0.7841251982	 0.0328593881	-0.08374
H	 1.0269679622	 1.6428131342	-0.1844991928	 0.22223
H	 0.879358182	-2.7198144585	-0.568847094	 0.118118
H	 1.4349255418	-2.4871183822	 1.1165992879	 0.124853
H	-2.5822084711	-2.9140168554	-0.1047456843	 0.10671
H	-2.3194533467	-3.3063254812	 1.6442386935	 0.10296
H	-3.0470930207	-0.5092488169	 1.5800632735	 0.100393
H	-1.1189866292	-1.910799647	 2.8254690469	 0.206999
H	-1.6612305226	-0.9539169132	-0.9606629029	 0.101306
146.1015	214.6729	298.6059	346.682	477.9551	531.8505	576.2133	603.7748	663.4818	751.4172	780.9007	827.1794	884.0832	900.1659	906.6609	923.2349	963.1297	979.0328	1008.2571	1021.6786	1060.4662	1081.3037	1088.4918	1130.9902	1168.2268	1178.2109	1195.4847	1218.3123	1251.837	1275.6262	1296.56	1308.057	1364.8825	1384.798	1502.5149	1508.0333	1789.6641	3038.3284	3042.0069	3095.2641	3102.2974	3114.8754	3118.0358	3387.3758	3464.8135
N=C1OCC23CC(N2)C13	[NH][C]1OC[C@@]23C[C@@H](N2)[C@@H]13	
InChI=1S/C6H8N2O/c7-5-4-3-1-6(4,8-3)2-9-5/h3-4,7-8H,1-2H2	InChI=1S/C6H8N2O/c7-5-4-3-1-6(4,8-3)2-9-5/h3-4,7-8H,1-2H2/t3-,4+,6-/m1/s1
