21
gdb 121815	3.33479	0.74735	0.70265	0.2365	82.13	-0.2517	0.0358	0.2875	1701.1721	0.177761	-424.178396	-424.167124	-424.16618	-424.215093	40.258	
C	 0.0992788304	 1.3598555386	-0.1353466008	-0.228765
O	 0.0392470951	-0.0431059911	-0.05644305	-0.234227
C	-1.2828296283	-0.527303803	 0.0635514239	-0.073899
C	-1.2096221739	-2.0481469655	 0.1498191125	-0.21261
C	-2.5844719693	-2.7558991854	 0.0658059602	 0.13678
C	-3.5341679365	-2.3408147253	 1.199112348	-0.399169
O	-3.2614899287	-2.3957727998	-1.1464278008	-0.445864
C	-2.3653873164	-4.2113369687	 0.1010423304	 0.319204
C	-2.1658423794	-5.3969519595	 0.0994725664	-0.468666
H	 1.1515802306	 1.6385262023	-0.2322657723	 0.125421
H	-0.4526473377	 1.7455782848	-1.0075338686	 0.102827
H	-0.3129527381	 1.8397878026	 0.7670271697	 0.101792
H	-1.760588757	-0.0992225384	 0.9601366626	 0.085479
H	-1.8895156103	-0.2282320916	-0.8050820035	 0.100672
H	-0.584304638	-2.4055653088	-0.6764058198	 0.107201
H	-0.7041292507	-2.3456078098	 1.0744193455	 0.114392
H	-3.7800851302	-1.2800582614	 1.1095186629	 0.128918
H	-4.4600517406	-2.9155772115	 1.1332294643	 0.133965
H	-3.0739127104	-2.521540779	 2.1734334561	 0.124218
H	-2.7849563442	-2.8034606197	-1.8781318742	 0.283981
H	-2.0005084566	-6.4462338297	 0.1035999973	 0.198351
62.6906	69.3922	101.694	136.5006	176.4412	190.0489	232.2867	244.2874	289.3028	304.4106	357.1528	385.8309	403.5381	487.7811	566.9548	588.2579	631.8523	664.6431	757.3485	798.3003	914.3938	951.6614	985.7418	1003.6012	1065.2688	1118.0078	1159.9304	1173.1696	1181.5091	1193.1472	1230.4283	1243.4129	1300.5567	1326.9361	1372.4223	1407.4369	1425.562	1476.7287	1481.5368	1484.9106	1485.8645	1497.6215	1505.8121	1537.0482	2229.9172	2960.4457	2972.0107	3004.5094	3009.5095	3042.7586	3056.03	3089.1614	3111.6814	3134.8023	3139.5621	3499.9451	3806.2694
COCCC(C)(O)C#C	COCC[C@@](C)(O)C#C	
InChI=1S/C7H12O2/c1-4-7(2,8)5-6-9-3/h1,8H,5-6H2,2-3H3	InChI=1S/C7H12O2/c1-4-7(2,8)5-6-9-3/h1,8H,5-6H2,2-3H3/t7-/m0/s1
