18
gdb 124589	3.75065	0.99944	0.95424	3.3015	74.67	-0.2238	0.0042	0.228	1308.4871	0.147701	-435.27591	-435.267052	-435.266108	-435.310012	32.724	
C	-0.1604132615	 1.5814120569	-0.0781700376	-0.389519
C	-0.006509279	 0.0574159088	-0.0488891235	 0.054571
C	-1.3260275845	-0.6648233912	 0.241535996	-0.389553
N	 0.5944202618	-0.4313884739	-1.2923415691	 0.078936
C	 0.1155964172	-0.3648438687	-2.5659888315	-0.203359
C	 1.1000866966	-0.9806559207	-3.3056074289	 0.36821
O	 1.1308995644	-1.1865889774	-4.6362234926	-0.428447
N	 2.0962555695	-1.3798091743	-2.4855421901	-0.28926
N	 1.78352856	-1.0420832404	-1.255162692	-0.151911
H	 0.7969957055	 2.0650866566	-0.2877348589	 0.138796
H	-0.8803822003	 1.8944040479	-0.8411474328	 0.123217
H	-0.5233832536	 1.9361005999	 0.890757042	 0.126698
H	 0.7297978251	-0.2164505696	 0.7113908463	 0.122259
H	-2.0847006232	-0.4261074999	-0.5107236878	 0.123218
H	-1.1817922866	-1.7481096769	 0.2548280403	 0.138786
H	-1.7117743577	-0.3543417252	 1.2168143562	 0.126712
H	-0.8244669503	 0.0846807262	-2.829502099	 0.143759
H	 1.9611020265	-1.6434945881	-4.822994737	 0.306887
39.0863	104.8741	186.2537	224.1833	258.3317	307.578	315.562	390.0397	417.7307	461.7119	501.2844	615.806	688.2415	708.0542	754.1935	755.3543	896.9218	936.727	954.0807	1042.5323	1050.8	1097.4117	1143.6581	1147.1617	1194.0983	1206.4548	1274.3112	1289.7055	1353.4162	1400.068	1401.8762	1407.2977	1422.5912	1484.9295	1487.4985	1498.3302	1505.1614	1513.3952	1651.5375	3040.5943	3044.3697	3082.9165	3109.9565	3120.4675	3126.3109	3128.4612	3300.1277	3791.5895
CC(C)N1C=C(O)N=N1	CC(C)n1cc(O)nn1	
InChI=1S/C5H9N3O/c1-4(2)8-3-5(9)6-7-8/h3-4,9H,1-2H3	InChI=1S/C5H9N3O/c1-4(2)8-3-5(9)6-7-8/h3-4,9H,1-2H3
