19
gdb 107512	2.0498	1.58544	1.08503	2.0126	81.02	-0.2348	0.02	0.2548	1183.237	0.156973	-385.81317	-385.804098	-385.803154	-385.847135	34.175	
C	 0.1422301219	 1.5291780767	-0.1807622041	-0.372037
C	-0.127267666	 0.0371509448	 0.062639055	-0.301801
C	 0.6565982595	-0.5186136629	 1.2172414687	 0.286019
C	 2.0997058455	-0.9842066766	 1.1458480217	-0.353127
C	 1.0383903831	-1.9147012767	 1.6456440974	 0.036177
O	 0.762797335	-1.6682114171	 3.0288332808	-0.296048
C	 0.2921619332	-0.3235123425	 2.7032067919	-0.108936
C	 0.9317543233	 0.7350144106	 3.4655301613	 0.343942
C	 1.4537819977	 1.6227014666	 4.0859826446	-0.452334
H	 1.1988512699	 1.7027529261	-0.407346428	 0.122578
H	-0.4524637856	 1.9039063212	-1.0192924013	 0.111949
H	-0.1071616963	 2.1252332207	 0.7028734415	 0.126893
H	-1.1994575435	-0.1206982995	 0.2402184316	 0.100483
H	 0.1190951031	-0.5340084248	-0.840944624	 0.10175
H	 2.4502911203	-1.173646363	 0.1351970493	 0.113022
H	 2.8486587993	-0.6062195616	 1.8356120827	 0.126476
H	 0.8051201005	-2.8971644249	 1.2519279518	 0.106552
H	-0.7966424508	-0.2851552458	 2.8394361246	 0.106272
H	 1.91668477	 2.4038964687	 4.6370702947	 0.202171
70.5132	94.0514	134.7725	208.3159	211.0995	305.2937	329.6111	380.8829	439.2632	510.4619	551.2286	623.5098	670.4974	685.0913	741.8215	783.3299	857.1293	878.8129	945.2944	965.4247	980.885	1006.5027	1008.0213	1029.7196	1063.1794	1081.4714	1094.9	1136.4208	1213.8549	1232.1825	1267.4566	1319.5608	1351.3643	1357.5647	1407.7976	1415.9079	1476.6304	1485.2031	1498.2216	1506.5031	2233.5252	3014.5616	3018.6833	3037.9979	3051.5807	3109.3486	3110.5202	3115.6607	3182.2301	3207.4503	3501.7192
CCC12CC1OC2C#C	CC[C@]12C[C@H]1O[C@H]2C#C	
InChI=1S/C8H10O/c1-3-6-8(4-2)5-7(8)9-6/h1,6-7H,4-5H2,2H3	InChI=1S/C8H10O/c1-3-6-8(4-2)5-7(8)9-6/h1,6-7H,4-5H2,2H3/t6-,7+,8+/m0/s1
