16
gdb 14010	4.3768	1.28975	1.18069	2.6741	66.7	-0.2511	-0.0264	0.2247	1026.7215	0.129407	-383.707903	-383.700324	-383.69938	-383.740354	27.264	
O	-0.1176880526	 0.0348103359	-0.4056450466	-0.264102
C	 0.0053195583	 1.157877197	 0.0149909992	 0.168765
C	 1.2715626474	 1.9222966433	 0.0371676477	-0.162277
C	 1.1879701284	 3.4426451387	-0.1223873426	-0.359155
C	 1.5398848841	 2.8654256934	 1.1932372593	 0.27581
C	 0.8215784182	 2.9892991625	 2.5375684155	-0.138459
O	 2.086020286	 3.1527312297	 3.2138890696	-0.270966
C	 2.8345858843	 3.001837645	 1.9887693168	-0.132101
H	-0.8690816239	 1.7178082848	 0.4268722632	 0.064815
H	 2.1227413179	 1.4079143808	-0.3974508394	 0.111165
H	 1.9631776604	 3.9157326813	-0.7157177983	 0.133615
H	 0.1973482864	 3.871571331	-0.2469255728	 0.129041
H	 0.174704959	 3.8683569688	 2.6529995556	 0.109214
H	 0.2850466981	 2.0976407088	 2.8855847168	 0.113543
H	 3.4788258227	 2.1134218806	 2.0064765252	 0.111698
H	 3.4427852453	 3.8873410984	 1.7636075207	 0.109394
75.1077	120.1405	147.3331	219.7326	335.639	361.6086	410.5793	479.7556	566.9466	841.8527	851.3486	873.5744	890.0455	941.0485	975.5495	1026.1423	1034.7149	1042.5812	1068.8163	1073.2945	1125.891	1153.4653	1159.9884	1173.0769	1214.5231	1291.1368	1311.5191	1355.5839	1416.1581	1447.528	1491.9517	1508.7078	1533.4194	1822.494	2836.4401	3003.2932	3014.0961	3050.8595	3052.5051	3122.1275	3170.4205	3211.9772
O=CC1CC11COC1	O=C[C@H]1CC21COC2	
InChI=1S/C6H8O2/c7-2-5-1-6(5)3-8-4-6/h2,5H,1,3-4H2	InChI=1S/C6H8O2/c7-2-5-1-6(5)3-8-4-6/h2,5H,1,3-4H2/t5-/m1/s1
