17
gdb 98249	2.57075	1.24055	0.92782	4.9594	66.07	-0.2383	-0.0093	0.229	1257.4882	0.134901	-492.340142	-492.330019	-492.329075	-492.375901	35.22	
C	 0.1199842545	 1.2702983179	-0.0289287791	-0.24872
O	-0.0174520599	-0.16062664	-0.0211428343	-0.241457
C	-1.2886455681	-0.6193792674	 0.0339461725	 0.437376
O	-2.251905897	 0.0987993891	 0.0920785418	-0.349495
C	-1.3329532056	-2.1429871626	 0.022767536	-0.165507
N	-2.6053186515	-2.6219580286	 0.5141924417	-0.530908
C	-1.017835463	-2.7064277651	-1.4023106611	 0.371928
N	 0.1733616187	-2.331536405	-1.9283458151	-0.513818
O	-1.7847909959	-3.4757206857	-1.9446435127	-0.351743
H	 1.1920825026	 1.4646991585	-0.0470101614	 0.137886
H	-0.3646369094	 1.6978901232	-0.9098925809	 0.148017
H	-0.3331638912	 1.6981745721	 0.8676491892	 0.153736
H	-0.5018640331	-2.4816809898	 0.6596081882	 0.123396
H	-3.2738976582	-1.8581544979	 0.4600674998	 0.244764
H	-2.9246343839	-3.3403341115	-0.1334502026	 0.24795
H	 0.7370163007	-1.6266699686	-1.4837484477	 0.27082
H	 0.4203704303	-2.6701619788	-2.8435809946	 0.265774
46.0141	82.5933	113.8504	128.0598	205.3372	227.5685	256.2775	303.3111	328.147	356.3547	387.0815	480.9704	539.1252	634.0509	655.7584	685.3245	764.843	883.5914	914.3685	967.0203	1017.4693	1113.2274	1178.6158	1189.7383	1193.4536	1212.6985	1242.5583	1293.1194	1351.1122	1389.7545	1473.2489	1481.5538	1496.6338	1616.2551	1663.2044	1800.7408	1834.4235	2994.726	3057.9245	3137.5591	3165.0895	3474.2437	3551.1495	3595.0835	3731.4572
COC(=O)C(N)C(N)=O	COC(=O)[C@@H](N)C(=O)N	
InChI=1S/C4H8N2O3/c1-9-4(8)2(5)3(6)7/h2H,5H2,1H3,(H2,6,7)	InChI=1S/C4H8N2O3/c1-9-4(8)2(5)3(6)7/h2H,5H2,1H3,(H2,6,7)/t2-/m0/s1
