15
gdb 9562	4.2885	1.31874	1.24505	3.7186	73.55	-0.2644	0.0047	0.2692	1000.4628	0.117101	-325.500228	-325.491999	-325.491055	-325.532571	30.298	
C	-0.0384074868	 1.5411623795	-0.0503485933	-0.457968
C	 0.0158630579	 0.0217941368	-0.0273003956	 0.122905
C	 1.3450450619	-0.6662790945	-0.2404987114	-0.302933
C	 0.7308097742	-0.6873982797	 1.144443355	-0.207657
C	 1.3087332548	 0.0895694894	 2.2029031256	 0.294456
N	 1.7712822997	 0.7205374313	 3.0556232937	-0.338472
C	-1.162442497	-0.6451160966	-0.516598804	 0.265792
C	-2.1542529667	-1.1850529309	-0.929599911	-0.429863
H	 0.8751101686	 1.9723324781	 0.3660598895	 0.141376
H	-0.1543982224	 1.8950118164	-1.0786109272	 0.135597
H	-0.8866526071	 1.9062818117	 0.534901399	 0.142911
H	 1.359381917	-1.6038695646	-0.7820359817	 0.141025
H	 2.2093405516	-0.0295336127	-0.3893453915	 0.143053
H	 0.2868937417	-1.6217438444	 1.4677454334	 0.14737
H	-3.0297960075	-1.6627692099	-1.2945008305	 0.202406
109.4443	130.099	178.0578	202.5449	253.4016	335.8727	349.4927	483.4532	534.2205	556.5155	574.9462	610.8781	657.1517	688.3605	792.4456	850.475	937.9574	959.1688	991.0199	1083.4213	1088.2157	1104.125	1129.7745	1269.6182	1287.2443	1386.2566	1420.8776	1478.0535	1486.1488	1500.2555	2238.3192	2351.2837	3048.7788	3120.8559	3131.3054	3149.3653	3184.397	3245.6209	3501.9269
CC1(CC1C#N)C#C	C[C@]1(C[C@H]1C#N)C#C	
InChI=1S/C7H7N/c1-3-7(2)4-6(7)5-8/h1,6H,4H2,2H3	InChI=1S/C7H7N/c1-3-7(2)4-6(7)5-8/h1,6H,4H2,2H3/t6-,7+/m0/s1
