19
gdb 67680	2.18002	2.13795	1.64141	1.1551	80.68	-0.2193	-0.0196	0.1997	942.6567	0.160744	-385.838178	-385.830863	-385.829919	-385.869426	29.777	
C	-0.0671288222	 1.6369366539	-0.1099254344	-0.503456
C	 0.0139088392	 0.134702845	-0.0433912059	 0.243554
C	 0.6969058261	-0.8286554391	-0.9825951442	-0.134774
C	 1.7711932672	-1.5786974964	-0.1949219836	-0.271065
C	 1.2125847399	-1.4887227152	 1.2139068715	-0.082099
C	 0.1784806387	-0.6367939304	 1.2692697938	 0.030273
C	-1.2087189563	-1.124987159	 1.5972502457	-0.130796
O	-1.5350195785	-1.6717087532	 0.2817677619	-0.277842
C	-0.8491449913	-0.8777494586	-0.686672984	 0.061571
H	 0.8762277087	 2.1017959975	 0.1978686657	 0.120783
H	-0.2877599478	 1.9690255067	-1.1294742999	 0.117705
H	-0.8577389785	 2.0249648892	 0.5427852434	 0.118975
H	 0.9177375126	-0.5266813341	-2.0044913822	 0.074634
H	 1.8608492177	-2.6378705156	-0.4706317169	 0.116439
H	 2.7648495241	-1.1328744372	-0.3484213824	 0.107867
H	 1.3975648778	-2.2658806335	 1.9492355992	 0.099114
H	-1.2483898624	-1.9395260287	 2.3223862981	 0.114171
H	-1.9360975999	-0.3478433869	 1.8629256203	 0.099197
H	-1.479971835	-0.6666410144	-1.5451914964	 0.095749
188.1236	198.4332	225.761	251.0966	307.0618	399.0396	485.2422	581.9777	639.6104	682.3186	706.9401	759.053	819.6964	834.8825	857.8256	891.4959	913.2238	948.9757	961.3659	1004.54	1010.494	1048.6943	1063.4727	1067.7923	1105.5001	1155.2284	1177.3184	1184.4082	1229.9019	1243.1808	1302.2231	1310.5049	1324.2121	1348.4876	1412.619	1448.1762	1473.491	1487.9201	1498.1901	1510.6131	1652.6063	2997.0272	3022.5482	3024.489	3035.4848	3084.7076	3098.1441	3120.6255	3131.3909	3155.1659	3177.322
CC12C3CC=C1COC23	C[C@@]12[C@H]3C[CH][C]1CO[C@@H]23	
InChI=1S/C8H10O/c1-8-5-2-3-6(8)7(8)9-4-5/h2,6-7H,3-4H2,1H3	InChI=1S/C8H10O/c1-8-5-2-3-6(8)7(8)9-4-5/h2,6-7H,3-4H2,1H3/t6-,7+,8-/m0/s1
