17
gdb 116436	2.50444	1.41166	0.94838	2.5395	64.54	-0.2455	-0.0401	0.2054	1189.8574	0.135606	-496.099958	-496.091482	-496.090538	-496.133807	30.843	
O	 0.0615639475	 1.3885302868	-0.1295326578	-0.422624
C	 0.0686042861	-0.0206475289	-0.0757349956	-0.067393
C	-1.3525031752	-0.5692092798	 0.0284028948	-0.032111
O	-2.0627754639	-0.1003208158	-1.1195190223	-0.259543
C	-3.3209535329	-0.7015577582	-1.264773508	 0.012176
O	-3.2142234479	-2.0732257721	-1.5232863116	-0.224567
C	-2.6388805679	-2.7734202335	-0.4332147708	-0.190836
C	-1.4032979446	-2.0924973577	 0.1550586006	 0.354182
O	-0.5612631087	-2.7152326906	 0.7554002072	-0.296529
H	-0.5192945982	 1.6314588707	-0.85979798	 0.293245
H	 0.5549016217	-0.464459219	-0.9576068185	 0.102232
H	 0.634839281	-0.3193794819	 0.8082457829	 0.134806
H	-1.8256231569	-0.157883082	 0.9392138396	 0.109381
H	-3.9327723302	-0.5255924231	-0.3593972819	 0.083171
H	-3.7947147118	-0.2480002622	-2.136681483	 0.129188
H	-3.3674205044	-2.8824650263	 0.3908059292	 0.12483
H	-2.3692725038	-3.7742947265	-0.7760593246	 0.150391
53.2367	110.8182	141.7227	181.0875	310.7415	344.0406	397.4515	423.001	450.4336	482.7692	524.2592	587.0891	688.96	815.8205	879.0954	947.0825	975.3568	1051.99	1071.9243	1089.4909	1092.2927	1154.733	1180.2527	1207.478	1231.1128	1270.6622	1294.8934	1321.5153	1343.6505	1364.5682	1392.2871	1423.9006	1439.8602	1463.3608	1497.2403	1509.6681	1824.5858	2925.2462	2943.7753	2953.0803	2997.8736	3117.7368	3122.2746	3124.8364	3800.7486
OCC1OCOCC1=O	OC[C@H]1OCOCC1=O	
InChI=1S/C5H8O4/c6-1-5-4(7)2-8-3-9-5/h5-6H,1-3H2	InChI=1S/C5H8O4/c6-1-5-4(7)2-8-3-9-5/h5-6H,1-3H2/t5-/m1/s1
