15
gdb 25931	2.81749	1.68137	1.05991	5.9873	70.12	-0.1986	-0.0186	0.18	1051.8388	0.114832	-450.170708	-450.163136	-450.162192	-450.202824	29.424	
N	-0.0580690936	 1.4082841931	-0.0008111366	-0.5634
C	 0.0775925902	 0.0420601782	-0.0920964142	 0.489019
N	 1.1648507666	-0.6248563454	-0.2338857117	-0.583942
H	 0.614866278	-2.2715074401	-0.0253744973	 0.325018
H	 1.9988766889	-0.0490696579	-0.1829794862	 0.225488
N	-1.1259330532	-0.661483266	-0.069201803	-0.153459
C	-2.4358012178	-0.1790394031	-0.1239236965	-0.005365
N	-3.3016814775	-1.140808911	-0.0320420546	-0.264524
C	-2.5789970439	-2.3178623093	 0.0900176339	-0.201291
C	-1.2386312942	-2.0571521981	 0.0583052468	 0.374998
O	-0.174758666	-2.8501299029	 0.1380312744	-0.425741
H	 0.7994519366	 1.9212822509	 0.1311621734	 0.264078
H	-0.8324369397	 1.75851393	 0.5423480819	 0.2716
H	-2.6540367467	 0.8628831508	-0.296764685	 0.130791
H	-3.0580601775	-3.2781140193	 0.1839120247	 0.116732
84.4879	140.6508	257.6235	310.474	386.4076	400.483	486.9442	511.7094	541.6595	639.8096	668.2436	682.8793	721.9629	729.5817	738.4852	756.8609	767.8122	800.0946	917.9193	1086.7513	1117.4504	1127.5634	1180.7703	1239.6814	1277.2807	1296.6984	1359.8145	1479.8596	1512.96	1549.7047	1628.2797	1661.1771	1737.6211	3250.041	3257.4815	3272.55	3546.7816	3585.2716	3693.7047
NC(=[NH2+])N1C=NC=C1[O-]	NC(=N)n1cncc1O	
InChI=1S/C4H6N4O/c5-4(6)8-2-7-1-3(8)9/h1-2,9H,(H3,5,6)	InChI=1S/C4H6N4O/c5-4(6)8-2-7-1-3(8)9/h1-2,9H,(H3,5,6)
