21
gdb 58918	2.78208	1.55753	1.21007	1.2334	82.11	-0.2211	0.0659	0.287	1107.5759	0.182992	-383.160111	-383.151691	-383.150747	-383.193209	33.11	
C	-0.0463324197	 1.5458939832	-0.0273399422	-0.399408
C	-0.0565619777	 0.0097234694	 0.0260049128	-0.120287
C	 0.7664378503	-0.5140387259	 1.2114664391	-0.382208
C	-1.4699492622	-0.5149944705	 0.0356850665	 0.412182
N	-2.448108437	-0.2349937788	-1.0788296659	-0.391239
C	-3.2286046041	-1.0793379671	-0.1234526895	-0.043373
C	-1.9973551774	-1.9794280314	 0.1919305743	-0.074985
N	-2.0966035762	-1.8612738569	 1.6848802707	-0.350907
C	-2.556793215	-0.5260411579	 1.1782483688	-0.090551
H	 0.980425727	 1.9216955883	-0.0773148347	 0.114711
H	-0.5809203306	 1.9226375415	-0.9049069865	 0.118176
H	-0.513350073	 1.9728366183	 0.867819	 0.113096
H	 0.3970020036	-0.3610258406	-0.9040896215	 0.08672
H	 0.7785229485	-1.6059794281	 1.2443720342	 0.127002
H	 1.7990973902	-0.1576497615	 1.1371772896	 0.103313
H	 0.3543535136	-0.1655278855	 2.1634227207	 0.123206
H	-2.7698476623	 0.7355658696	-1.027719629	 0.205493
H	-4.2662203894	-1.3771685421	-0.2883360942	 0.078328
H	-1.6575933851	-2.8760693097	-0.3270744053	 0.086534
H	-2.8995859092	-2.4004700272	 2.02083159	 0.207037
H	-2.8805567843	 0.287747613	 1.8314677921	 0.077159
47.9808	179.2247	186.9323	226.9265	263.1972	317.7296	360.5924	445.0771	490.9362	526.7154	625.063	755.1733	785.5611	833.7604	852.4656	877.3403	897.0215	906.1214	929.8771	940.9362	966.1584	985.9165	1021.0745	1072.5629	1095.5309	1099.7102	1123.6078	1144.7467	1152.8794	1181.5922	1198.4083	1213.5915	1260.3267	1263.6077	1292.8085	1301.4536	1343.343	1349.2471	1392.9285	1400.5089	1425.9256	1482.022	1491.0059	1503.6369	1510.1443	3007.7273	3028.6609	3040.1934	3084.8553	3096.4898	3097.6631	3104.7117	3107.4737	3119.4492	3123.652	3394.4188	3397.6971
CC(C)C12NC3C1NC23	CC(C)[C@@]12N[C@H]3[C@@H]1N[C@@H]23	
InChI=1S/C7H12N2/c1-3(2)7-5-4(9-7)6(7)8-5/h3-6,8-9H,1-2H3	InChI=1S/C7H12N2/c1-3(2)7-5-4(9-7)6(7)8-5/h3-6,8-9H,1-2H3/t4-,5-,6+,7+
