12
gdb 129241	5.45045	1.37211	1.09616	2.91	62.6	-0.2235	0.0057	0.2292	986.3036	0.08037	-468.798187	-468.791897	-468.790953	-468.828928	24.204	
N	-0.0512400709	 1.2716242158	 0.0102154689	-0.552591
C	-0.0161446889	 0.0236858003	 0.0030215848	 0.459998
O	 1.152067475	-0.7814179804	-0.007574477	-0.263655
C	 0.667011237	-2.0501068389	-0.0122075506	 0.411322
C	-0.6852965337	-2.0727787823	-0.0053178838	 0.213456
O	-1.1387452773	-0.7649845546	 0.0044065364	-0.236631
C	-1.0511115368	-3.4249225101	-0.0109765268	-0.141219
N	 0.057884524	-4.1791210805	-0.0209745884	-0.223229
N	 1.117132591	-3.3129734984	-0.021574894	-0.345787
H	 0.8817468095	 1.6734979009	 0.0076318791	 0.248019
H	-2.019861189	-3.8970034541	-0.008594271	 0.138727
H	 2.0541620801	-3.6758424677	-0.0285312985	 0.291591
118.8391	257.7001	323.9367	345.7416	433.1626	566.9632	594.5929	656.3627	706.7217	722.2831	774.3425	778.5028	806.7442	864.3501	882.5527	961.2168	979.779	1051.7533	1123.3169	1235.4817	1265.66	1328.2596	1407.8731	1492.9345	1592.6995	1656.5846	1826.4727	3273.4547	3560.3546	3689.7457
N=C1OC2=C(O1)C=NN2	[NH][C@@H]1Oc2c(O1)cn[nH]2	
InChI=1S/C4H3N3O2/c5-4-8-2-1-6-7-3(2)9-4/h1,5H,(H,6,7)	InChI=1S/C4H4N3O2/c5-4-8-2-1-6-7-3(2)9-4/h1,4-5H,(H,6,7)/t4-/m0/s1
