20
gdb 116097	2.83221	1.16301	0.8699	2.4688	77.57	-0.2554	0.0196	0.275	1341.4525	0.17173	-440.295625	-440.286668	-440.285724	-440.329802	32.989	
C	-0.1322954027	 1.3803089316	 0.0026494112	-0.245586
O	 0.107092032	-0.0092771223	 0.0597617498	-0.248287
C	 0.7314614132	-0.5507886567	-1.0870144499	 0.122348
C	 1.2348035529	-1.9440581131	-0.7314108164	-0.233695
C	 1.8907383242	-2.5790326695	-1.9503742988	-0.088705
O	 1.0415975166	-2.604212748	-3.1076763995	-0.252032
C	 0.3358111864	-1.4764316246	-3.4275047713	 0.372651
N	 0.0782803297	-1.1738410083	-4.6293551564	-0.499028
C	-0.2297119249	-0.6704091429	-2.2793810388	-0.288283
H	 0.7928895708	 1.9419957993	-0.1998172938	 0.106584
H	-0.8748791054	 1.651670769	-0.7608470847	 0.114291
H	-0.5173346613	 1.6776915724	 0.9809214041	 0.130348
H	 1.5894888909	 0.0839994231	-1.3719183194	 0.069146
H	 1.9579167945	-1.892298178	 0.0884529135	 0.111737
H	 0.3888566098	-2.5522639391	-0.3916349117	 0.118009
H	 2.8139717239	-2.0405566396	-2.2085407785	 0.108411
H	 2.1530746146	-3.6226757309	-1.7637927348	 0.12281
H	 0.5139824767	-1.8545483825	-5.2562738316	 0.218062
H	-1.1309911731	-1.1835430724	-1.91804717	 0.131388
H	-0.5361632688	 0.2975523125	-2.6766859129	 0.12983
77.08	99.4859	115.155	179.0026	215.3942	275.5045	358.8022	414.6508	451.7109	485.6819	497.404	571.5659	654.4122	814.943	851.8018	902.9026	927.5047	951.8107	963.3448	1017.1758	1055.3016	1099.9434	1113.4031	1142.2686	1165.7253	1180.7187	1190.212	1225.4032	1269.934	1279.3305	1299.6958	1318.9688	1346.5203	1378.4137	1409.4277	1429.4968	1468.8578	1479.5962	1489.1274	1494.289	1509.8448	1513.0332	1747.4861	2943.8532	2981.0609	3005.134	3030.9577	3033.9159	3047.4714	3096.6746	3105.2244	3115.9615	3132.141	3455.9445
COC1CCOC(=N)C1	CO[C@H]1CCO[C]([NH])C1	
InChI=1S/C6H11NO2/c1-8-5-2-3-9-6(7)4-5/h5,7H,2-4H2,1H3	InChI=1S/C6H11NO2/c1-8-5-2-3-9-6(7)4-5/h5,7H,2-4H2,1H3/t5-/m0/s1
