18
gdb 51538	4.51062	0.72698	0.6955	4.1632	75.81	-0.253	-0.0265	0.2265	1596.362	0.146819	-439.107555	-439.098433	-439.097489	-439.142984	32.154	
O	 0.6704017591	-0.5957241388	 0.4332644682	-0.31593
C	 0.2165409948	 0.5213572192	 0.3159624815	 0.152212
N	 0.928648035	 1.6254475548	-0.0519740835	-0.293783
C	 2.3363139771	 1.5981722511	-0.3523325906	 0.080333
C	 2.8291202031	 2.17824366	-1.70446603	-0.270786
C	 4.0535690546	 2.8096254059	-0.9596449446	-0.091749
C	 3.2826133353	 2.5826453418	 0.3844811155	-0.270811
C	 5.2983911523	 1.9717079105	-1.0677810569	 0.172116
O	 6.382364935	 2.3894300497	-1.3846671446	-0.254332
H	-0.8484458683	 0.7646544485	 0.5000357141	 0.078436
H	 0.4371695446	 2.5040525088	-0.1151734409	 0.244619
H	 2.6500779259	 0.5617740808	-0.2198365339	 0.133102
H	 3.0301415174	 1.4705262133	-2.5126099843	 0.122452
H	 2.1647452755	 2.9604740119	-2.0824863776	 0.109389
H	 4.3035439983	 3.8401590205	-1.213440271	 0.09611
H	 2.7666474864	 3.4972491306	 0.6902070869	 0.109379
H	 3.8445004158	 2.1967891089	 1.2387463454	 0.122434
H	 5.151648968	 0.8912467524	-0.8263383637	 0.076811
47.6708	57.2303	75.5299	185.507	211.3986	281.6424	299.7079	387.3237	423.4794	468.9191	538.449	653.8292	793.5567	814.006	882.9416	887.8315	914.0037	971.2784	975.035	1026.6376	1050.9318	1091.376	1100.7339	1147.2226	1207.1019	1208.6344	1239.5912	1256.6009	1275.0503	1293.3369	1318.7995	1371.8582	1432.2974	1439.4664	1471.4261	1494.6754	1532.964	1808.0944	1831.6134	2843.8993	2940.9966	3057.6527	3060.6142	3103.414	3112.0341	3114.0642	3126.9835	3618.7668
O=CNC1CC(C1)C=O	O=CN[C@H]1C[C@@H](C1)C=O	
InChI=1S/C6H9NO2/c8-3-5-1-6(2-5)7-4-9/h3-6H,1-2H2,(H,7,9)	InChI=1S/C6H9NO2/c8-3-5-1-6(2-5)7-4-9/h3-6H,1-2H2,(H,7,9)/t5-,6-
