15
gdb 125093	3.25871	1.25536	0.91135	1.7303	72.71	-0.2327	-0.0624	0.1703	1195.1267	0.112651	-453.988724	-453.980098	-453.979153	-454.022922	30.541	
C	 0.0054397013	 1.6094530644	 0.0394766027	-0.512762
C	 0.0387660929	 0.1160815527	-0.0157461106	 0.009275
C	-0.0324640592	-0.7422981011	-1.1128086844	 0.226632
N	 0.0406495923	-2.0104608898	-0.6285477615	-0.262201
N	 0.1545388297	-2.0521571069	 0.7073968372	-0.312131
C	 0.1533407202	-0.7730446014	 1.0742304715	 0.387144
O	 0.252746898	-0.3982095725	 2.3653878835	-0.426355
C	-0.1592799223	-0.5121057204	-2.5440243126	 0.088011
O	-0.2055134196	-1.4114163462	-3.3595220192	-0.297866
H	 0.9164025038	 2.008026941	 0.4991991576	 0.144781
H	-0.0884478873	 2.0505484836	-0.9555137941	 0.129114
H	-0.8363199166	 1.9634654228	 0.6446304043	 0.144768
H	 0.01497318	-2.8536284664	-1.1776838904	 0.28907
H	 0.3175108258	-1.201526323	 2.896938046	 0.307442
H	-0.211623289	 0.5518315531	-2.8505026999	 0.085079
31.7701	116.523	172.0983	200.3706	239.2147	302.1058	347.7842	396.9765	406.6346	518.8168	544.6355	640.9188	677.0829	732.8137	784.0381	805.1223	965.85	1024.4336	1061.7487	1126.246	1154.0006	1238.7687	1266.801	1327.4173	1403.473	1421.9065	1460.328	1477.586	1489.886	1502.8324	1577.7685	1619.3297	1769.8681	2929.3119	3035.6608	3086.1719	3120.8119	3673.0541	3797.8974
CC1=C(NN=C1O)C=O	Cc1c([nH]nc1O)C=O	
InChI=1S/C5H6N2O2/c1-3-4(2-8)6-7-5(3)9/h2H,1H3,(H2,6,7,9)	InChI=1S/C5H6N2O2/c1-3-4(2-8)6-7-5(3)9/h2H,1H3,(H2,6,7,9)
