23
gdb 59665	2.39198	1.33865	0.96463	1.7811	85.57	-0.2547	0.0749	0.3296	1314.7348	0.204605	-388.268622	-388.259033	-388.258089	-388.302712	36.755	
C	-0.3323893215	 1.5082083494	 0.1862118353	-0.390434
C	 0.027603777	 0.0429659998	-0.0971944658	 0.00463
C	 0.9351354228	-0.0645774799	-1.3331068195	-0.396415
C	 0.6853909073	-0.6124491446	 1.1160317056	-0.024171
C	-0.0475469337	-0.6592176661	 2.4945865733	-0.254957
C	 0.5281555581	-2.0867422456	 2.7311362753	-0.320613
C	 0.7925616443	-2.14155412	 1.2265496609	 0.447649
C	 0.3487970372	-3.173736198	 0.2866069379	-0.268033
O	 1.741601369	-2.964089775	 0.5760855073	-0.278072
H	 0.5662195393	 2.0940770736	 0.4136996795	 0.111977
H	-0.815479729	 1.9677674019	-0.6825190944	 0.109985
H	-1.0149215983	 1.6001236552	 1.0368990868	 0.113663
H	-0.9066004985	-0.5001459484	-0.3020601046	 0.064967
H	 1.8363747169	 0.5457357535	-1.1996642189	 0.113555
H	 1.266752165	-1.0916604908	-1.5098510768	 0.130469
H	 0.4232864887	 0.2928614682	-2.2326870611	 0.107276
H	 1.6886938701	-0.1880239827	 1.2603782327	 0.077643
H	 0.2112208671	 0.1104624807	 3.2231941049	 0.103031
H	-1.1343631773	-0.6783110844	 2.3699884487	 0.103514
H	 1.4638541771	-2.0618635088	 3.2976453401	 0.11428
H	-0.1298878879	-2.8440138254	 3.163072087	 0.103349
H	-0.0696142476	-4.1036719772	 0.6707548967	 0.112603
H	 0.0383071638	-2.9099314755	-0.7227433909	 0.114105
90.4441	114.8273	149.6614	212.3855	217.6806	252.5691	281.3373	332.7466	342.086	422.7265	437.9194	504.7402	574.0043	714.5727	788.6621	851.2582	881.7611	891.1977	904.2784	930.9215	948.9739	954.776	975.8033	997.2894	1074.4025	1078.1009	1128.881	1147.2871	1154.8612	1168.2354	1182.3454	1208.3169	1213.7162	1247.1775	1270.4531	1273.2397	1313.4124	1348.928	1396.5747	1400.4442	1421.4026	1429.515	1479.7783	1485.0685	1491.5825	1499.1877	1503.1941	1511.1844	1538.6088	2992.8196	3016.7411	3025.3589	3030.9621	3058.854	3060.9909	3083.3042	3088.9363	3094.7429	3101.6641	3110.2914	3113.4456	3125.1093	3169.4565
CC(C)C1CCC11CO1	CC(C)[C@H]1CC[C@]21CO2	
InChI=1S/C8H14O/c1-6(2)7-3-4-8(7)5-9-8/h6-7H,3-5H2,1-2H3	InChI=1S/C8H14O/c1-6(2)7-3-4-8(7)5-9-8/h6-7H,3-5H2,1-2H3/t7-,8-/m1/s1
