17
gdb 99005	4.27133	0.86936	0.72897	2.2869	69.64	-0.2523	0.0167	0.2691	1529.0022	0.134467	-492.324412	-492.314238	-492.313294	-492.361384	33.964	
C	 1.0130015596	 1.6545010071	-1.7642198549	-0.22343
O	 1.1590060548	 0.2460051122	-1.9611804614	-0.202885
C	 0.5857376705	-0.5296417466	-1.0435298486	 0.521023
N	-0.0546556297	-0.062982835	-0.0485782692	-0.592203
N	 0.7772700265	-1.8898754161	-1.3135569068	-0.466997
C	 1.4515853704	-2.5051113831	-2.3574434611	 0.536522
O	 2.0292104348	-1.9913168953	-3.2754033351	-0.374711
O	 1.345720481	-3.8456968414	-2.1607838959	-0.27374
C	 1.9922820417	-4.643323566	-3.1572133505	-0.235102
H	-0.0426148864	 1.9372725021	-1.7649300425	 0.140597
H	 1.4560342649	 1.9594559422	-0.8128747741	 0.140525
H	 1.5378443577	 2.1157043978	-2.6009918833	 0.13499
H	-0.425661003	-0.7954672274	 0.5504838205	 0.212964
H	 0.3633883064	-2.5242535255	-0.64968166	 0.261819
H	 1.5654405557	-4.4508746935	-4.1446894706	 0.14352
H	 3.0636641428	-4.4300818052	-3.1891643562	 0.14349
H	 1.8189052925	-5.6785500363	-2.8627978904	 0.133618
26.3423	62.7916	93.114	136.9625	143.703	174.9995	191.468	271.5127	337.9938	386.8294	425.1586	550.3608	701.9012	731.5923	749.7775	767.1857	787.9413	891.4362	989.6609	1051.3787	1119.7161	1147.0276	1182.528	1183.6054	1206.795	1216.5163	1223.7459	1402.4917	1463.4026	1478.3975	1480.5225	1483.5671	1495.8891	1500.6006	1514.0048	1739.9145	1859.4126	3052.047	3052.3545	3127.1585	3127.2369	3158.0278	3158.9382	3527.0693	3651.3247
COC(=N)NC(=O)OC	COC(=N)NC(=O)OC	
InChI=1S/C4H8N2O3/c1-8-3(5)6-4(7)9-2/h1-2H3,(H2,5,6,7)	InChI=1S/C4H8N2O3/c1-8-3(5)6-4(7)9-2/h1-2H3,(H2,5,6,7)
