16
gdb 19993	3.63715	1.53779	1.21412	5.0694	70.93	-0.2522	0.0351	0.2873	997.0116	0.130765	-342.749426	-342.741879	-342.740934	-342.781802	27.69	
N	 0.0859792329	-1.2887611758	 0.345472028	-0.340637
C	 0.0606291998	-0.1335399672	 0.2923443826	 0.299108
C	-0.0166625223	 1.2971170263	 0.2051690203	-0.199485
C	 0.5212000404	 2.1631694297	 1.3382770601	-0.307897
C	 1.2503524039	 2.125393999	 0.0328916318	 0.059403
N	 2.4930757459	 1.4227162314	-0.002513997	-0.056643
C	 3.1705852642	 1.340560382	-1.2937371181	-0.220544
C	 3.6956307266	 2.224793709	-0.2163938609	-0.225407
H	-0.9017201068	 1.6569511575	-0.3086614775	 0.134003
H	-0.0531468692	 3.0435024515	 1.6011865038	 0.129031
H	 0.9874611854	 1.6404403212	 2.1641779703	 0.15125
H	 1.1433354385	 2.9908515558	-0.6275838231	 0.087534
H	 3.6452230947	 0.3889185188	-1.5106142347	 0.133396
H	 2.6986618688	 1.8226597889	-2.14797513	 0.115184
H	 3.575459583	 3.2985643038	-0.3486865674	 0.114425
H	 4.5627321443	 1.931291288	 0.3674583418	 0.127279
64.6406	109.0736	185.4123	260.0164	277.584	376.8157	450.7826	561.527	641.3546	733.4717	773.6886	819.111	833.9607	900.3863	916.7709	985.5914	1019.9483	1051.5256	1071.6435	1091.8453	1118.112	1121.7371	1125.0683	1140.1951	1174.8962	1203.047	1220.5515	1326.9034	1374.6169	1408.6569	1477.8594	1490.5615	1518.6304	2357.6462	3052.8211	3099.5816	3105.392	3150.7928	3169.5076	3186.9188	3201.8051	3248.5509
N#CC1CC1N1CC1	N#C[C@H]1C[C@H]1N1CC1	
InChI=1S/C6H8N2/c7-4-5-3-6(5)8-1-2-8/h5-6H,1-3H2	InChI=1S/C6H8N2/c7-4-5-3-6(5)8-1-2-8/h5-6H,1-3H2/t5-,6-/m1/s1
