16
gdb 12202	3.97218	1.49187	1.27704	4.6927	65.64	-0.2592	0.0123	0.2715	971.4052	0.130465	-379.908175	-379.900018	-379.899074	-379.94095	29.592	
C	 0.1242392549	 1.5752636554	-0.0383231624	-0.391245
C	 0.1031669283	 0.0628784527	 0.0609429021	 0.014103
N	 1.093730595	-0.6535916227	-0.7846884316	-0.322164
C	 1.3273638319	-1.6594716772	 0.2709114035	-0.191363
C	 2.7203341183	-2.065480988	 0.4435746289	 0.302861
N	 3.8263230905	-2.3656951583	 0.593288155	-0.322347
C	 0.7361816517	-0.6342913162	 1.308896028	 0.137066
O	 1.6684652957	 0.1003633468	 2.0410207421	-0.411441
H	 1.1195616947	 1.972015541	 0.1757041967	 0.118386
H	-0.159038016	 1.8957634426	-1.0461556941	 0.121605
H	-0.5832467073	 2.0175481211	 0.6702043774	 0.125726
H	-0.9233801557	-0.3103349815	-0.0787350586	 0.070627
H	 0.7682495137	-1.015166625	-1.6746965528	 0.228952
H	 0.6990058124	-2.558980499	 0.2070434854	 0.112252
H	 0.0375790026	-1.0564272083	 2.0316003983	 0.106393
H	 2.3754847694	 0.3887460165	 1.4514834021	 0.30059
56.9829	137.2306	181.4227	232.6231	240.2343	343.7931	373.0238	386.9843	491.2124	566.0004	610.8807	697.7994	766.9471	829.8121	881.3811	956.0671	987.4572	1025.6334	1060.5732	1098.0776	1148.7491	1154.7535	1181.82	1243.4528	1261.2311	1331.8879	1339.0393	1376.8603	1401.9625	1420.526	1443.3946	1485.8119	1492.2335	2356.4713	2977.5555	3004.9854	3041.9397	3108.6328	3117.075	3126.3402	3532.0966	3796.5588
CC1NC(C#N)C1O	C[C@H]1N[C@@H](C#N)[C@H]1O	
InChI=1S/C5H8N2O/c1-3-5(8)4(2-6)7-3/h3-5,7-8H,1H3	InChI=1S/C5H8N2O/c1-3-5(8)4(2-6)7-3/h3-5,7-8H,1H3/t3-,4+,5+/m1/s1
