22
gdb 100430	3.06755	0.84875	0.77336	1.6134	82.31	-0.2378	0.0358	0.2736	1602.2797	0.190861	-441.492301	-441.481024	-441.480079	-441.529396	39.773	
C	-0.01396686	 1.4354356009	-0.1756020411	-0.222315
O	-0.0241863091	 0.034999804	 0.0911097654	-0.24092
C	-1.239566586	-0.5570251875	 0.1586739424	 0.419869
C	-1.0741191486	-2.0165743321	 0.5047982104	-0.488141
N	-2.2902164794	 0.1201301874	-0.0482546832	-0.30096
C	-3.6044853798	-0.4634742683	 0.0806708227	-0.16746
C	-4.1950451908	-0.212316586	 1.4803412123	 0.141665
C	-5.6820305908	-0.5566014993	 1.5480350317	-0.408316
O	-3.4548077806	-0.9064758441	 2.4839316402	-0.428718
H	 1.0374350535	 1.7277823906	-0.1742801021	 0.119836
H	-0.4713025351	 1.6525771031	-1.1451858033	 0.129338
H	-0.5667463245	 1.9834714289	 0.5927097147	 0.130645
H	-0.0856115196	-2.3615699684	 0.1984888578	 0.137533
H	-1.1725979805	-2.1451621385	 1.5861997984	 0.154435
H	-1.8356661136	-2.631217718	 0.02013962	 0.12997
H	-4.2609342722	 0.010195465	-0.6599993521	 0.097966
H	-3.6377280949	-1.5493396526	-0.1148000318	 0.071055
H	-4.0498268698	 0.8475099724	 1.7168811127	 0.098179
H	-5.8544453767	-1.6064034959	 1.2765748569	 0.10584
H	-6.0605870415	-0.4003443194	 2.5617482508	 0.125723
H	-6.2652100294	 0.0631393656	 0.8598005669	 0.120626
H	-3.6829207507	-1.8402851277	 2.4142005603	 0.27415
56.5008	57.359	89.5548	116.7566	172.7258	192.6877	223.6528	248.2216	276.4439	310.1755	352.4756	374.5533	460.1402	475.5771	513.552	578.23	646.6548	807.6703	842.6152	926.2496	942.9956	971.0035	1055.1684	1067.7635	1082.6741	1097.4651	1129.1049	1155.572	1180.2473	1220.0644	1237.7188	1300.564	1315.7463	1339.2371	1379.3073	1396.4308	1402.4159	1425.1894	1470.506	1474.9611	1476.8144	1486.4363	1490.1847	1494.1803	1499.959	1503.8495	1749.5316	2952.8589	3021.7047	3038.2748	3041.9049	3057.9766	3059.0209	3094.5717	3111.997	3119.3092	3127.4291	3142.7947	3147.0345	3796.3118
COC(C)=NCC(C)O	COC(=NC[C@@H](C)O)C	
InChI=1S/C6H13NO2/c1-5(8)4-7-6(2)9-3/h5,8H,4H2,1-3H3	InChI=1S/C6H13NO2/c1-5(8)4-7-6(2)9-3/h5,8H,4H2,1-3H3/t5-/m1/s1
