18
gdb 17780	6.63374	1.05507	1.02517	0.2601	82.4	-0.2365	0.0527	0.2892	1216.5867	0.154214	-310.595791	-310.587969	-310.587025	-310.629392	28.715	
C	 0.0658674605	 1.5387734976	-0.0554603238	-0.501971
C	 0.0455967426	 0.0840106322	 0.0003070595	 0.13042
C	 0.0281520613	-1.1204464697	 0.0470329837	 0.009868
C	 0.0365455536	-2.569042091	 0.0783093813	-0.161508
C	-0.0971474437	-3.3335844274	 1.4451958115	-0.03552
C	-1.5944861108	-2.9111640122	 1.4709556979	-0.22254
C	-1.3133563391	-3.3715830234	 0.0114666765	-0.03552
C	-0.5349718855	-4.5737312996	 0.6162500795	-0.228096
H	 0.8484780204	 1.9002117548	-0.731952135	 0.146782
H	-0.8897494452	 1.9384623639	-0.4131986757	 0.146323
H	 0.2566202268	 1.9740525357	 0.9319999957	 0.146323
H	 0.8196244639	-2.9686532483	-0.5753726022	 0.084875
H	 0.6169118006	-3.3019744877	 2.2691765689	 0.073812
H	-2.265463642	-3.5447540194	 2.0569270078	 0.087374
H	-1.8035456732	-1.8508374362	 1.620197562	 0.107044
H	-2.0101153035	-3.3840519429	-0.8276969765	 0.073812
H	 0.2253113318	-5.0410091751	-0.0163013751	 0.088268
H	-1.1332213586	-5.3205685414	 1.1435288042	 0.090254
21.8261	104.2172	105.4118	284.6753	291.9246	432.4046	457.5758	501.1861	565.1624	767.0287	806.6051	837.0194	872.3848	900.1297	907.4523	914.9039	1014.0592	1024.7472	1032.4009	1052.9703	1054.0854	1087.1262	1104.2323	1114.8108	1138.1554	1193.8891	1203.7612	1210.2356	1241.0821	1246.0393	1259.1718	1377.909	1414.8552	1478.5344	1478.9668	1497.2819	1534.1681	2362.4573	3023.7915	3041.3702	3049.7928	3060.8702	3083.0207	3084.2098	3101.1998	3106.8901	3116.9261	3133.1131
CC#CC1C2CC1C2	CC#C[C@H]1[C@H]2C[C@@H]1C2	
InChI=1S/C8H10/c1-2-3-8-6-4-7(8)5-6/h6-8H,4-5H2,1H3	InChI=1S/C8H10/c1-2-3-8-6-4-7(8)5-6/h6-8H,4-5H2,1H3/t6-,7+,8-
