22
gdb 94627	3.2482	0.77832	0.68906	4.3441	86.9	-0.2971	0.0382	0.3353	1677.4388	0.194223	-367.227772	-367.218025	-367.217081	-367.263075	35.781	
C	-0.5918156566	 1.3730664266	-0.1127297845	-0.416257
C	 0.1063135642	 0.0208820357	-0.1030567732	 0.034887
C	 1.556698947	-0.0914165226	-0.6487313937	-0.223855
C	 1.8716099588	-1.1064931673	 0.4818032165	-0.228628
C	 0.5970400876	-0.6227891998	 1.2405268523	-0.006168
C	 0.8761296739	 0.3572773	 2.3798580918	-0.191852
C	 1.4342503182	-0.3635912442	 3.6250583797	-0.344282
C	 1.7252351991	 0.5542133132	 4.7240244365	 0.255689
N	 1.9487244022	 1.2959135718	 5.5816970743	-0.306668
H	 0.0056678687	 2.1453833841	 0.3825425418	 0.117216
H	-0.7675459197	 1.7051597612	-1.1419074023	 0.116851
H	-1.5651906545	 1.3295943195	 0.3888708226	 0.115751
H	-0.5263257463	-0.7114199983	-0.6174029845	 0.074602
H	 1.6825673676	-0.4271862461	-1.6808232097	 0.098202
H	 2.1095543364	 0.8452559805	-0.5251698164	 0.101384
H	 1.7826936285	-2.1428710131	 0.1459509825	 0.104054
H	 2.8307392743	-0.9958858101	 0.9965488751	 0.09442
H	-0.0499937924	-1.4232141935	 1.6175068155	 0.062734
H	 1.5919490671	 1.1254173157	 2.066021683	 0.118205
H	-0.0422534625	 0.8834109659	 2.6620635378	 0.119831
H	 0.7163603831	-1.1129931779	 3.9790957736	 0.150275
H	 2.3533212255	-0.9053774013	 3.3742741213	 0.153611
58.9707	93.4621	113.4771	126.9383	216.0436	226.1764	255.082	339.3665	387.1514	411.878	471.4193	557.6085	640.7286	751.5459	766.202	849.9612	890.7678	891.2628	916.705	956.1633	964.6607	974.0259	1010.4387	1036.5936	1094.1306	1129.8485	1142.7909	1163.9552	1206.6353	1227.3173	1254.888	1263.8556	1270.8799	1291.8818	1298.6395	1324.278	1359.2064	1373.2199	1394.9109	1411.8331	1467.2017	1482.4023	1490.6443	1494.8078	1499.6546	1504.7758	2361.3961	3024.1362	3026.6776	3036.3533	3039.3222	3045.7148	3050.5129	3056.2971	3070.031	3089.6589	3092.0712	3094.9945	3099.4877	3112.9199
CC1CCC1CCC#N	C[C@H]1CC[C@H]1CCC#N	
InChI=1S/C8H13N/c1-7-4-5-8(7)3-2-6-9/h7-8H,2-5H2,1H3	InChI=1S/C8H13N/c1-7-4-5-8(7)3-2-6-9/h7-8H,2-5H2,1H3/t7-,8+/m0/s1
