18
gdb 45317	3.30637	1.44764	1.10697	2.6494	77.24	-0.2524	0.0093	0.2617	1090.6951	0.150208	-401.963553	-401.956114	-401.95517	-401.995978	28.921	
N	 0.199446899	 1.1523691856	 0.3280273785	-0.548479
C	 0.0405745677	-0.019706218	-0.0885208685	 0.421073
O	 0.8259014961	-0.7913258293	-0.922726714	-0.273167
C	-0.0856339128	-1.937433307	-0.7879633109	 0.120994
C	 0.5638414629	-3.1598445927	-0.1385422047	-0.285575
C	-0.4139172934	-3.8458994255	 0.788124793	-0.060312
C	-1.2409581929	-3.142698619	 1.5612379036	-0.053614
C	-1.2421523997	-1.6324912706	 1.5497023716	-0.286585
C	-1.0069545052	-1.0946095869	 0.123929974	-0.145555
H	 1.0606657452	 1.5629250225	-0.0373634369	 0.226383
H	-0.5113714035	-2.1794144804	-1.7646172781	 0.096266
H	 0.9426933843	-3.848447644	-0.8988642818	 0.111249
H	 1.4384929147	-2.8119111489	 0.4280225613	 0.129492
H	-0.4090233464	-4.9308636581	 0.8241372798	 0.094074
H	-1.9208786821	-3.6462034664	 2.2420742048	 0.095099
H	-2.1789623494	-1.2381468955	 1.9514508613	 0.11753
H	-0.4519964863	-1.2580122034	 2.2139633702	 0.132171
H	-1.9580920682	-0.8473832422	-0.3520102733	 0.108957
63.7411	102.2433	209.0025	342.6634	400.7951	437.571	455.0037	536.3462	637.0219	695.8878	741.4894	758.6752	788.5209	868.0129	907.6467	919.9878	939.4777	979.2284	990.5921	993.4003	1022.2732	1057.1601	1091.2416	1137.8238	1151.4292	1196.3511	1214.3821	1231.306	1242.9832	1307.8537	1324.7235	1332.0241	1364.3028	1376.3644	1403.8854	1484.2658	1492.4484	1708.5855	1820.3667	3018.1577	3023.6146	3071.7373	3081.7121	3090.0241	3099.6836	3162.8165	3185.8063	3472.9567
N=C1OC2CC=CCC12	[NH][C]1O[C@H]2CC=CC[C@@H]12	
InChI=1S/C7H9NO/c8-7-5-3-1-2-4-6(5)9-7/h1-2,5-6,8H,3-4H2	InChI=1S/C7H9NO/c8-7-5-3-1-2-4-6(5)9-7/h1-2,5-6,8H,3-4H2/t5-,6+/m1/s1
