19
gdb 38702	2.6111	2.09824	1.56751	2.2489	78.14	-0.2286	0.0113	0.2399	910.0105	0.161863	-385.859797	-385.853185	-385.852241	-385.890245	28.552	
C	-0.0957992867	 1.5553849432	-0.1994215535	-0.272514
C	 1.3432123213	 1.9572702516	 0.1467211214	 0.029779
O	 2.468511232	 1.9390149636	-0.7615966057	-0.309601
C	 2.165856042	 0.7515742702	-0.0388892436	 0.351592
C	 1.2915573137	-0.2555997469	-0.8036806531	-0.266831
C	-0.0015166155	 0.0097778771	-0.0148946936	-0.008036
C	 0.2846497675	-0.4260297212	 1.474416134	-0.267478
C	 1.7526449028	-0.4385979433	 1.9145157302	-0.0431
C	 2.7246250279	 0.1514535831	 1.2055227074	-0.198394
H	-0.8004919128	 2.0405265146	 0.4829380805	 0.099232
H	-0.3911008097	 1.8058556985	-1.2241096385	 0.111363
H	 1.5090512993	 2.6041854674	 1.0035875414	 0.098271
H	 1.1967470479	 0.0284819782	-1.8550098014	 0.103967
H	 1.662058075	-1.2795683089	-0.7314672087	 0.097459
H	-0.887834831	-0.5175817878	-0.3843406284	 0.059174
H	-0.294302968	 0.2047293659	 2.1648118458	 0.109757
H	-0.1115360294	-1.4395760886	 1.6179832784	 0.111458
H	 1.9748291017	-0.9789586458	 2.8310501737	 0.091824
H	 3.7728838022	 0.1478818492	 1.4822934437	 0.102079
183.1638	300.7421	344.2444	384.2309	442.4553	469.7367	499.9342	621.1861	637.3405	692.9028	736.5246	762.1348	794.3756	870.8409	888.0206	915.7875	930.7877	949.6331	961.1374	978.0108	1005.7995	1024.5884	1041.2151	1081.2201	1120.9263	1153.3662	1176.0376	1186.4426	1209.8078	1259.3799	1278.3578	1308.4786	1319.2391	1336.1666	1356.3972	1371.9442	1446.4398	1464.5536	1471.9404	1498.3568	1656.8473	3003.2501	3033.4852	3042.3347	3051.4345	3067.672	3092.1754	3124.282	3149.7264	3158.7476	3195.9658
C1C2OC22CC1CC=C2	C1[C@@H]2O[C@@]32C[C@H]1CC=C3	
InChI=1S/C8H10O/c1-2-6-4-7-8(3-1,5-6)9-7/h1,3,6-7H,2,4-5H2	InChI=1S/C8H10O/c1-2-6-4-7-8(3-1,5-6)9-7/h1,3,6-7H,2,4-5H2/t6-,7-,8+/m0/s1
