19
gdb 65697	4.50385	0.80773	0.76705	2.1441	84.11	-0.2415	-0.0272	0.2143	1493.5068	0.155366	-385.857914	-385.84795	-385.847006	-385.893223	36.201	
C	-0.1610770133	 1.6411250982	 0.1555956979	-0.460797
C	-0.0035050418	 0.1393543623	 0.016905797	 0.318783
C	-1.2217399428	-0.5750680928	-0.5532312323	-0.345228
C	-1.5037791168	-0.1776125216	-1.9898885438	 0.168372
O	-2.5809050683	 0.150637956	-2.4144206693	-0.240045
C	 1.357099443	-0.4179167538	-0.3114251243	-0.322389
C	 0.7858758731	-0.6195335432	 1.0864543635	-0.26172
C	 1.3598922828	 0.0526224873	 2.2138787218	 0.322702
C	 1.8369054327	 0.6064603476	 3.1698160826	-0.44149
H	 0.7206772493	 2.0920489069	 0.6154305926	 0.134405
H	-0.3155326964	 2.1105405725	-0.8224521545	 0.123996
H	-1.0263156582	 1.885317637	 0.7815383019	 0.128453
H	-1.0451943791	-1.6602806712	-0.5530732664	 0.118353
H	-2.1201435624	-0.3818792925	 0.041716414	 0.1252
H	-0.611606906	-0.2177474191	-2.657530606	 0.076768
H	 1.4326641485	-1.2955782085	-0.9447103737	 0.117166
H	 2.1814813129	 0.2791988067	-0.407256825	 0.128984
H	 0.4227601265	-1.6207601951	 1.3029441697	 0.11209
H	 2.2582251763	 1.0939098334	 4.0136459543	 0.196397
55.2921	71.171	123.0926	142.4672	199.3315	227.0013	294.0992	331.7403	356.1753	402.0291	481.4425	526.5797	579.2268	601.7199	653.4968	707.5297	787.4566	815.7622	871.4669	942.8203	957.9123	979.2573	1018.3845	1060.9187	1080.3136	1100.8147	1112.7698	1137.8724	1202.8871	1256.8395	1311.9028	1346.8855	1395.1927	1422.6696	1428.6913	1454.3384	1482.6042	1492.7218	1497.865	1835.3266	2234.2665	2861.9784	3012.9777	3032.7779	3087.5038	3091.9874	3127.9164	3134.4484	3137.9866	3225.2962	3504.6993
CC1(CC=O)CC1C#C	C[C@@]1(CC=O)C[C@H]1C#C	
InChI=1S/C8H10O/c1-3-7-6-8(7,2)4-5-9/h1,5,7H,4,6H2,2H3	InChI=1S/C8H10O/c1-3-7-6-8(7,2)4-5-9/h1,5,7H,4,6H2,2H3/t7-,8-/m1/s1
