15
gdb 130411	3.92309	1.13011	0.89679	8.6806	71.98	-0.2245	-0.0541	0.1704	1228.3285	0.114453	-450.113753	-450.10584	-450.104896	-450.146754	29.067	
N	 0.3881216874	 0.8400797249	 0.6485916726	-0.522722
H	 0.6900554627	 0.684580585	 1.6053554902	 0.248147
H	 0.9702574159	 2.9987251292	 0.1509135969	 0.284387
H	 0.4160608378	-0.0572448962	 0.1787561051	 0.250326
C	-0.9677698569	 1.393731977	 0.6163956217	-0.254945
C	-0.943333649	 2.8819931895	 0.885892809	 0.456335
C	-1.9414334669	 3.6115848014	 1.4341029152	-0.379714
C	-1.7824204608	 5.0485972033	 1.5608771741	 0.434967
O	-2.6135798063	 5.8086224136	 2.009348784	-0.353426
N	-0.5135853497	 5.5918801677	 1.1173154384	-0.244868
N	 0.3948401311	 4.8661166577	 0.6279867799	-0.032957
N	 0.1845260287	 3.535717799	 0.4941543553	-0.278301
H	-1.3658239922	 1.238802186	-0.3939695828	 0.148073
H	-1.6797457667	 0.9274988013	 1.3115737664	 0.125142
H	-2.862557095	 3.1527136808	 1.7720351238	 0.119556
71.7846	111.7406	161.0527	232.9673	292.0595	386.6165	459.1611	491.5199	544.2348	566.6459	639.2078	712.0241	732.9404	804.9874	857.4997	883.8565	894.7583	959.0505	1048.2111	1062.7241	1074.1452	1166.0749	1194.7589	1211.3149	1315.5847	1344.9521	1405.0489	1443.0481	1489.1439	1577.0824	1663.458	1674.1843	1791.9702	3006.9374	3055.9505	3209.0244	3511.7603	3595.3604	3596.0145
[NH3+]CC1=CC(=O)N=N[N-]1	NCc1cc(=O)nn[nH]1	
InChI=1S/C4H6N4O/c5-2-3-1-4(9)7-8-6-3/h1H,2,5H2,(H,6,7,9)	InChI=1S/C4H6N4O/c5-2-3-1-4(9)7-8-6-3/h1H,2,5H2,(H,6,7,9)
