21
gdb 88374	2.08727	1.39085	1.1971	4.9631	82.67	-0.2582	0.0409	0.2991	1205.7269	0.180986	-383.267851	-383.257603	-383.256659	-383.302866	37.722	
C	-1.6150587325	-1.0865396377	 2.6638759012	-0.422008
C	-0.7628879893	-1.1461145312	 1.4178738494	-0.010007
N	-0.6756680043	 0.0547609614	 0.5675614985	-0.338487
C	 0.5431351785	-0.463538072	 1.1861856968	-0.014876
C	 1.3456307372	 0.4363058448	 2.1334025578	 0.067304
C	 2.1785290071	-0.4434612511	 3.0934762097	-0.403833
C	 2.2765096033	 1.3291641637	 1.2755907065	-0.405732
C	 0.4954375436	 1.3340845587	 2.9305114668	 0.299131
N	-0.1048932719	 2.0694126031	 3.5898904917	-0.362047
H	-1.5690964194	-0.1110395539	 3.146520655	 0.16689
H	-2.6605603303	-1.2858912361	 2.4050312887	 0.121363
H	-1.3002154254	-1.8520936628	 3.3817250331	 0.114149
H	-0.8453306408	-2.0966826878	 0.8886866757	 0.084202
H	-0.7217996761	-0.1757691263	-0.4203178333	 0.233742
H	 1.2319527949	-1.0148984978	 0.5437609121	 0.082207
H	 2.8226264883	-1.111138996	 2.5125809218	 0.119783
H	 2.8124017413	 0.1732105884	 3.7357680412	 0.134636
H	 1.5318371146	-1.0540259436	 3.7281618244	 0.137674
H	 1.6903889586	 1.9354422166	 0.5808178738	 0.14579
H	 2.8678824583	 1.997058051	 1.9071335598	 0.133582
H	 2.9627423443	 0.6990705985	 0.7008389796	 0.116539
44.05	145.86	151.439	192.2233	201.8904	230.2482	233.1121	263.858	313.7885	339.4503	390.3579	436.4104	517.3401	592.7318	635.1691	674.9161	788.1282	826.343	896.3873	937.6919	948.3128	968.9238	1014.5008	1030.974	1048.2249	1076.3403	1145.0525	1161.2514	1185.3319	1205.5581	1250.3785	1272.8767	1314.8735	1395.416	1399.0294	1416.1533	1433.1262	1467.4784	1481.567	1485.5821	1494.1847	1499.6909	1505.5581	1509.0265	2354.2678	3038.4551	3040.8837	3044.5739	3080.9604	3093.0155	3093.9534	3115.4216	3119.264	3130.0341	3132.2701	3164.9536	3514.8601
CC1NC1C(C)(C)C#N	C[C@H]1N[C@H]1C(C)(C)C#N	
InChI=1S/C7H12N2/c1-5-6(9-5)7(2,3)4-8/h5-6,9H,1-3H3	InChI=1S/C7H12N2/c1-5-6(9-5)7(2,3)4-8/h5-6,9H,1-3H3/t5-,6-/m1/s1
