20
gdb 59023	3.22209	1.11283	0.9141	3.3215	76.34	-0.2527	0.0211	0.2739	1334.0585	0.170213	-440.31611	-440.306548	-440.305604	-440.351214	34.779	
C	 0.3404486486	 1.0148720408	-0.7050691503	-0.391423
C	-0.0250057336	 0.0592675691	 0.4373390393	 0.06458
O	 0.0152066483	 0.7298889358	 1.6759912762	-0.441197
C	-1.3832669917	-0.5551382557	 0.2308863332	 0.39412
N	-2.3465424646	-0.4244234102	 1.0495515119	-0.341443
C	-3.476903085	-1.174510626	 0.4881142646	-0.201172
C	-2.9566913922	-1.7245012029	-0.8712777118	 0.098548
C	-3.672314839	-1.1872642239	-2.0991493333	-0.397443
O	-1.5654144849	-1.2848987381	-0.8917154279	-0.266995
H	 1.3268519728	 1.4430969364	-0.511452818	 0.129023
H	 0.3614610614	 0.4890015245	-1.6632713553	 0.124322
H	-0.3852215241	 1.8317149138	-0.7598392388	 0.122139
H	 0.7034264078	-0.7685623353	 0.4417662939	 0.094977
H	-0.8622364969	 0.6202838881	 2.0716611408	 0.293602
H	-3.7772069359	-1.9718225935	 1.1759641605	 0.119071
H	-4.3419400572	-0.5142271029	 0.3563873292	 0.115367
H	-2.9354198852	-2.8183680954	-0.8902937565	 0.096647
H	-3.686308983	-0.0927871199	-2.0883015803	 0.130073
H	-3.1800294638	-1.5201952946	-3.0168223467	 0.132294
H	-4.7073246919	-1.5442893701	-2.1142349107	 0.124909
42.0744	63.0601	147.7403	195.244	239.9981	256.5156	290.8672	330.1579	347.3508	396.0366	460.637	502.8192	640.8936	712.7655	747.0901	835.5782	893.2928	918.1649	937.599	971.3484	1018.8595	1063.7106	1076.1185	1102.7085	1121.9577	1142.29	1156.6349	1227.2866	1241.5376	1301.2913	1334.2977	1347.5921	1361.4118	1387.3849	1401.6773	1410.8135	1454.4286	1485.1138	1491.1369	1495.1246	1502.0126	1506.749	1731.5286	2969.3168	3034.611	3039.4552	3046.4762	3054.6439	3074.4582	3112.5758	3122.541	3124.7537	3132.6418	3712.4852
CC(O)C1=NCC(C)O1	C[C@@H](O)C1=NC[C@@H](C)O1	
InChI=1S/C6H11NO2/c1-4-3-7-6(9-4)5(2)8/h4-5,8H,3H2,1-2H3	InChI=1S/C6H11NO2/c1-4-3-7-6(9-4)5(2)8/h4-5,8H,3H2,1-2H3/t4-,5-/m1/s1
