16
gdb 56522	2.67397	1.24834	1.06345	1.8647	69.51	-0.2865	-0.0081	0.2784	1147.3931	0.122311	-434.074931	-434.064947	-434.064003	-434.1095	35.622	
C	 0.0203582393	 1.5481357791	 0.1400683378	-0.430999
C	 0.0009170733	 0.0143253992	 0.0606216051	 0.044251
N	 0.7139101229	-0.5425706291	 1.2067398353	-0.507759
C	-1.4041478216	-0.4562882496	-0.0096821535	 0.266655
N	-2.4897969549	-0.8527879039	 0.0059304407	-0.330724
C	 0.7277084617	-0.5005333336	-1.2297414539	 0.002761
O	 0.0677071096	-0.1391359532	-2.4182533765	-0.407459
C	 2.135960902	-0.0630728008	-1.2346153363	 0.279211
N	 3.2228500215	 0.3214578329	-1.3069819265	-0.319593
H	 1.0536616564	 1.8969166457	 0.2047031282	 0.164123
H	-0.4668818122	 1.9897577514	-0.7323592564	 0.137799
H	-0.5240273767	 1.8866067196	 1.0255244889	 0.144582
H	 0.3866058716	-0.1194789016	 2.069188435	 0.250943
H	 0.5547099099	-1.5426919453	 1.286062736	 0.250607
H	 0.7111094059	-1.5957911373	-1.2006970244	 0.150443
H	 0.2707198513	 0.7797940664	-2.6261117494	 0.305159
66.1051	123.4327	175.4692	191.9438	216.5238	234.2491	260.7604	274.5143	315.1867	349.7685	384.6476	433.283	497.4294	578.2423	591.5535	641.0752	754.2407	837.87	891.4021	964.5033	993.1884	1035.6323	1104.9001	1170.3674	1196.0307	1274.7519	1303.4693	1356.6192	1407.0167	1418.4746	1489.8186	1496.8128	1663.7018	2347.8514	2360.3916	3053.839	3060.6022	3128.1922	3143.1129	3502.9215	3584.71	3813.5759
CC(N)(C#N)C(O)C#N	C[C@@](N)(C#N)[C@@H](O)C#N	
InChI=1S/C5H7N3O/c1-5(8,3-7)4(9)2-6/h4,9H,8H2,1H3	InChI=1S/C5H7N3O/c1-5(8,3-7)4(9)2-6/h4,9H,8H2,1H3/t4-,5+/m0/s1
