14
gdb 27444	2.70708	1.75674	1.21366	4.47	73.89	-0.2395	-0.0951	0.1444	986.5337	0.103187	-429.06005	-429.052688	-429.051744	-429.091819	28.132	
N	 0.1631962124	 1.2655719939	 0.3498884169	-0.527729
C	-0.1105829533	-0.0254987767	 0.0106542012	 0.415734
N	-1.2745140338	-0.5240554912	 0.2395220599	-0.281
C	-1.5271280416	-1.8687175193	 0.0079749856	 0.326502
N	-2.5119428496	-2.259712459	-0.6902584041	-0.480927
N	-0.6984237636	-2.7937958223	 0.7144167817	-0.2073
C	 0.5531068066	-2.8021589054	 0.4641251601	-0.023797
C	 1.2711140666	-1.8646079006	-0.4201824615	 0.000503
N	 0.9974286656	-0.6308633331	-0.6224016071	-0.248441
H	 0.9323463377	 1.7111853569	-0.1208844449	 0.270169
H	-0.6223733727	 1.8369337902	 0.6155754236	 0.273056
H	-2.5746638884	-3.2784203489	-0.651127669	 0.221469
H	 1.1677750411	-3.5708612877	 0.9406656687	 0.128849
H	 2.1690117029	-2.2531202368	-0.908295891	 0.13291
107.0069	145.5964	256.39	335.7876	388.8961	421.3038	450.8574	468.1773	534.0421	545.7819	658.6171	736.1749	746.5725	835.3496	858.8791	873.0668	898.474	937.3324	958.7598	1014.643	1046.4121	1195.2592	1335.243	1362.6092	1404.6073	1419.1053	1600.3413	1640.2119	1684.1903	1714.0314	1722.2607	3083.7358	3101.1713	3474.5492	3604.8834	3733.7214
NC1=NC(=N)N=CC=N1	NC1=N[C]([NH])N=CC=N1	
InChI=1S/C4H5N5/c5-3-7-1-2-8-4(6)9-3/h1-2H,(H3,5,6,9)	InChI=1S/C4H5N5/c5-3-7-1-2-8-4(6)9-3/h1-2H,(H3,5,6,9)
