21
gdb 121409	4.25218	0.84878	0.74287	1.4698	75.89	-0.2577	0.0834	0.3411	1555.8135	0.183037	-461.352733	-461.343623	-461.342679	-461.387199	33.285	
C	-0.245049421	 1.385373729	-0.697506819	-0.2238
O	-0.2463557271	-0.0172079923	-0.8148884365	-0.237718
C	 0.9280785415	-0.6124105225	-0.3126319518	-0.085502
C	 0.8212885432	-2.1155280378	-0.5284113663	 0.102394
C	 0.7341866986	-2.5212089277	-2.0027940539	-0.201038
C	 0.8527878954	-4.0428214142	-2.1048244731	-0.097983
O	 2.0155235728	-4.4971532578	-1.4199398699	-0.233367
C	 2.0004598286	-4.0870115576	-0.0810105852	 0.019433
O	 1.9819457294	-2.6904659801	 0.0668608919	-0.258479
H	-0.1655831993	 1.706905711	 0.3528765116	 0.106341
H	 0.5861684758	 1.8408840287	-1.2585136557	 0.106353
H	-1.1901434329	 1.7491664311	-1.1078501266	 0.127528
H	 1.8223850991	-0.2279053505	-0.8307078408	 0.095106
H	 1.0533563569	-0.4051740514	 0.7623027088	 0.096185
H	-0.0773748333	-2.4815473771	-0.0015222417	 0.073291
H	-0.2064031743	-2.1681870642	-2.4348216874	 0.114427
H	 1.5612818047	-2.0552228677	-2.5505051985	 0.106449
H	-0.043283799	-4.5233164465	-1.6753191885	 0.089045
H	 0.9517947264	-4.3764964749	-3.1407314725	 0.112166
H	 1.1229991223	-4.5245313866	 0.4351793102	 0.072455
H	 2.9250597122	-4.4444107109	 0.3766971248	 0.116715
68.8261	92.8211	116.6692	186.2845	235.2324	260.5019	318.0621	354.0889	386.5781	488.4078	491.023	551.3959	678.5783	829.1227	872.9761	920.7646	982.2874	989.7931	1002.7169	1058.5146	1066.4766	1107.3108	1137.7335	1166.0227	1171.9905	1191.675	1207.4222	1225.6977	1236.315	1255.3954	1270.5649	1317.9276	1343.16	1352.7867	1391.9252	1407.146	1427.6559	1447.7576	1470.7244	1482.5385	1486.223	1497.6156	1504.2954	1508.1507	1528.3704	2908.62	2952.1382	2961.9518	2963.7796	2975.5122	3002.3447	3017.2343	3045.9843	3095.5675	3106.2054	3112.1989	3114.8673
COCC1CCOCO1	COC[C@H]1CCOCO1	
InChI=1S/C6H12O3/c1-7-4-6-2-3-8-5-9-6/h6H,2-5H2,1H3	InChI=1S/C6H12O3/c1-7-4-6-2-3-8-5-9-6/h6H,2-5H2,1H3/t6-/m1/s1
