19
gdb 17449	3.34015	2.05546	1.62515	1.6446	74.6	-0.2475	0.094	0.3414	874.5583	0.166202	-327.87447	-327.86694	-327.865996	-327.905687	29.768	
C	-0.0628920376	 1.5381240803	-0.0561529951	-0.417537
C	 0.0928016063	 0.0343384631	 0.0375166754	 0.00032
C	 1.377358232	-0.7187781807	-0.2044369164	-0.099122
C	 2.5764378124	-0.0164007382	 0.3947652115	-0.10519
N	 3.162263871	-0.7749265729	 1.5052207128	-0.370119
C	 1.9326980421	-0.0148070146	 1.7620676721	 0.33867
C	 1.9437066809	 0.9992962238	 2.8691246461	-0.480651
C	 0.7138920569	-0.721481759	 1.1903404512	-0.15595
H	 0.8158153901	 2.0670214278	 0.3186779069	 0.127692
H	-0.2154007496	 1.8428900656	-1.0975449664	 0.115355
H	-0.9317947707	 1.8776019952	 0.5185831997	 0.115514
H	-0.7659639055	-0.5018091005	-0.3679418451	 0.083986
H	 1.4326640415	-1.546105602	-0.9044759155	 0.085483
H	 3.1917945351	 0.7448998762	-0.0713709932	 0.092236
H	 2.9825552205	-1.7726516682	 1.407446414	 0.220342
H	 2.9217191872	 1.4828162372	 2.9335274665	 0.130772
H	 1.1777741	 1.7661695768	 2.7186523239	 0.118173
H	 1.7468104572	 0.5182582394	 3.8346911546	 0.119231
H	 0.1954762501	-1.5461848493	 1.669937727	 0.080795
169.8784	181.8141	204.3404	226.9811	310.7862	343.8581	435.4226	504.14	622.0927	640.7906	733.6471	776.3642	802.2756	840.8389	895.9574	933.3041	964.0564	978.678	999.0025	1030.2425	1049.5803	1074.7583	1095.348	1102.414	1124.764	1145.0253	1179.776	1206.0478	1252.7068	1271.1666	1313.5644	1327.2885	1396.7116	1409.4605	1431.4273	1442.8464	1485.6239	1491.5235	1499.0032	1503.7028	3031.8927	3033.0284	3088.0876	3092.483	3101.882	3123.1932	3128.5092	3152.8407	3165.6254	3177.6065	3462.0715
CC1C2C3NC3(C)C12	C[C@H]1[C@H]2[C@@H]3N[C@]3(C)[C@@H]12	
InChI=1S/C7H11N/c1-3-4-5(3)7(2)6(4)8-7/h3-6,8H,1-2H3	InChI=1S/C7H11N/c1-3-4-5(3)7(2)6(4)8-7/h3-6,8H,1-2H3/t3-,4+,5-,6-,7+/m0/s1
