17
gdb 27634	3.13452	1.20679	0.87804	2.8365	88.27	-0.1758	0.0291	0.2049	1296.1773	0.135679	-380.886225	-380.876929	-380.875984	-380.919845	34.767	
C	-0.0397790974	 1.507812372	 0.082588426	-0.506195
C	 0.0048128994	 0.0223780164	-0.0402561525	 0.325317
C	-0.0149376812	-0.7974255425	-1.1343850317	-0.361112
C	 0.0315558641	-2.1624222332	-0.6782461885	 0.135422
C	 0.0128761825	-3.3514689999	-1.4361115395	 0.190047
C	-0.004568613	-4.3838621714	-2.0616768191	-0.441433
C	 0.0918271955	-2.1127253261	 0.7076931892	 0.198344
N	 0.2349634754	-3.1345281216	 1.6505965363	-0.620343
N	 0.0715681998	-0.7987402363	 1.0804246721	-0.338526
H	 0.8488177212	 1.9127714041	 0.5843867363	 0.124301
H	-0.0887371759	 1.9578833108	-0.9114713058	 0.139893
H	-0.9165074988	 1.8527412949	 0.6460029077	 0.124681
H	-0.0755737396	-0.4799433399	-2.163662686	 0.09621
H	-0.0147219239	-5.2832430526	-2.6246490976	 0.174404
H	 0.2970749619	-4.0290505287	 1.1769602662	 0.257458
H	-0.5338789754	-3.1749862243	 2.3128087411	 0.244838
H	 0.2027524954	-0.4809153216	 2.0256422659	 0.256693
115.4006	126.3512	139.792	206.333	214.7835	262.2814	302.6125	388.5637	441.8374	453.967	497.4295	513.9904	579.3183	634.1485	645.2701	662.146	697.1442	785.0395	802.0753	837.7598	990.9721	1018.5238	1063.3531	1113.9084	1167.0798	1195.1077	1256.5678	1345.2892	1399.7777	1419.5689	1478.0922	1495.2264	1519.5347	1575.8988	1634.1369	1660.2708	2215.6418	3010.7798	3052.1818	3122.961	3255.626	3495.1418	3505.0166	3589.1263	3670.1211
CC1=CC(C#C)=C(N)N1	Cc1cc(C#C)c(N)[nH]1	
InChI=1S/C7H8N2/c1-3-6-4-5(2)9-7(6)8/h1,4,9H,8H2,2H3	InChI=1S/C7H8N2/c1-3-6-4-5(2)9-7(6)8/h1,4,9H,8H2,2H3
