19
gdb 13315	4.96967	1.14969	0.98911	4.0935	75.	-0.3137	0.0365	0.3502	1181.7776	0.167548	-327.96658	-327.958482	-327.957538	-328.000202	29.347	
N	 0.0903300208	-1.2154964464	 0.0638262891	-0.314173
C	 0.0346030972	-0.0611957419	 0.0804531146	 0.265076
C	-0.010533874	 1.4002921314	 0.1017699447	-0.365664
C	 1.3757540069	 2.0456090577	-0.0691322159	 0.042991
C	 2.0572065875	 1.7706744217	-1.4195345598	-0.203618
C	 3.1866734565	 2.8189500701	-1.4834215903	-0.206917
C	 2.6841305588	 4.0307630092	-0.6411451854	-0.210648
C	 1.340856352	 3.5832296732	-0.0137983505	-0.217712
H	-0.6810544284	 1.7386889079	-0.6980495903	 0.14649
H	-0.4649283544	 1.7154828195	 1.0484411271	 0.148629
H	 2.0261715779	 1.6747012127	 0.734019042	 0.09145
H	 2.4154057313	 0.7428498275	-1.5189516125	 0.116955
H	 1.3325190631	 1.9415705793	-2.2270755864	 0.095963
H	 4.1020122982	 2.4089055755	-1.0451492619	 0.105382
H	 3.4298075255	 3.0967289701	-2.5121022927	 0.101863
H	 3.4095073368	 4.2836633487	 0.1374771529	 0.104437
H	 2.5559109732	 4.9294777511	-1.250039919	 0.103353
H	 0.5000196564	 3.9434839627	-0.6207257815	 0.096951
H	 1.1921140348	 3.9699796599	 0.9987766161	 0.099191
43.1571	79.0393	113.3791	183.9903	299.3781	397.7884	406.6928	456.6521	611.1933	629.258	767.0937	813.133	855.4926	888.3706	907.2435	927.9813	974.1675	983.6019	994.8896	1041.3572	1081.6129	1109.0188	1173.6646	1203.8349	1222.8717	1249.3958	1271.9731	1293.371	1311.8643	1327.8816	1340.7021	1346.7742	1363.3389	1391.231	1464.4133	1486.3963	1496.2092	1497.7559	1519.495	2360.0925	3013.9776	3019.8275	3028.7056	3037.3317	3049.2721	3061.0845	3072.9765	3078.9356	3089.4581	3098.2199	3109.6524
N#CCC1CCCC1	N#CCC1CCCC1	
InChI=1S/C7H11N/c8-6-5-7-3-1-2-4-7/h7H,1-5H2	InChI=1S/C7H11N/c8-6-5-7-3-1-2-4-7/h7H,1-5H2
