18
gdb 8885	3.8238	1.15641	0.93739	1.7755	65.27	-0.2744	-0.0397	0.2347	1235.9485	0.150926	-422.093417	-422.083919	-422.082974	-422.128287	33.425	
C	 0.0222891232	 1.5381435523	-0.022804416	-0.383879
C	-0.0278936989	 0.0230047493	 0.1852257103	-0.194479
C	-1.4416147779	-0.5423818166	-0.0595247562	 0.053658
O	-1.8985555624	-0.2030284836	-1.3426663458	-0.436311
C	-1.4935281801	-2.0543285725	 0.1232761458	 0.328624
O	-1.8725733495	-2.7620794373	-0.7915444443	-0.345069
C	-1.0952217839	-2.6953325095	 1.4408159559	-0.128721
O	-1.340859445	-4.0701784184	 1.4383480884	-0.419563
H	 1.0387357616	 1.9160389477	 0.1200168001	 0.115016
H	-0.305184654	 1.7948511282	-1.0325315604	 0.14645
H	-0.632356014	 2.0552860986	 0.6873849885	 0.115643
H	 0.6668228193	-0.4738342731	-0.5029537705	 0.110203
H	 0.2894460544	-0.2261020688	 1.2048333734	 0.101888
H	-2.1174769896	-0.1100506315	 0.7010452008	 0.093768
H	-2.1165905834	-1.042514309	-1.7763185149	 0.29595
H	-0.0278032074	-2.4801231443	 1.6162570681	 0.12596
H	-1.6458001322	-2.1971401711	 2.2544641305	 0.123715
H	-1.6366814002	-4.2801782104	 0.5393018764	 0.297147
43.8314	84.4883	111.9219	160.4298	228.8845	251.3347	316.1835	355.9471	376.5188	402.0718	407.5105	494.3582	557.198	722.4803	784.1983	837.3972	932.3651	983.0016	1000.2997	1060.3933	1076.8133	1128.9345	1147.5857	1188.3139	1251.6646	1274.0361	1294.8512	1315.8404	1345.1607	1373.363	1406.8558	1435.9125	1450.7834	1475.8297	1490.5173	1494.2383	1509.0276	1773.6448	2940.5739	2975.9223	2999.8466	3028.75	3039.9433	3070.7969	3106.5085	3134.4781	3698.4829	3709.284
CCC(O)C(=O)CO	CC[C@@H](O)C(=O)CO	
InChI=1S/C5H10O3/c1-2-4(7)5(8)3-6/h4,6-7H,2-3H2,1H3	InChI=1S/C5H10O3/c1-2-4(7)5(8)3-6/h4,6-7H,2-3H2,1H3/t4-/m1/s1
