18
gdb 36185	3.95172	1.11823	1.10078	1.3684	80.24	-0.2244	0.0496	0.2741	1166.9926	0.147645	-364.696317	-364.688557	-364.687613	-364.728882	30.536	
C	-0.1320664165	-1.1511284725	-0.388874152	-0.450872
C	-0.0508612607	 0.0146046361	-0.1087088519	 0.311521
C	 0.0786642726	 1.4288896292	 0.237125345	-0.490706
C	 1.4971664402	 1.9317357179	 0.1273365556	 0.345647
C	 2.6899262705	 1.6478639564	 1.0243035965	-0.221727
N	 3.3913142569	 2.8537923335	 0.4272999713	-0.171115
C	 3.6127397823	 2.3859497922	-1.0006736185	-0.177086
C	 2.1098161504	 2.4103051225	-1.2085330128	-0.12016
C	 1.9957670757	 3.3387761831	-0.0316682819	-0.099061
H	-0.213219909	-2.1801138881	-0.6376493551	 0.196972
H	-0.5748038748	 2.0266045008	-0.4122925899	 0.132727
H	-0.2886596139	 1.5873408426	 1.2603381951	 0.134717
H	 2.4738007709	 1.8404157037	 2.0794342169	 0.104812
H	 3.2366542868	 0.7035927239	 0.9248279636	 0.10295
H	 4.1303985826	 3.1692565929	-1.5606402087	 0.109803
H	 4.162228322	 1.4421257929	-1.0908515753	 0.100661
H	 1.5263417934	 2.404464229	-2.1213249843	 0.092328
H	 1.5775976907	 4.3222041839	 0.1314682363	 0.098589
64.3787	98.1026	261.2159	277.8022	344.1876	417.2582	451.9494	478.2616	620.9096	638.7969	681.078	724.8229	780.5963	834.8374	844.0882	864.8082	889.7782	932.5127	946.7249	960.8375	977.5136	1014.989	1051.8478	1085.7509	1103.786	1121.7335	1152.9042	1180.1576	1194.386	1231.3502	1262.9683	1289.2354	1326.0206	1334.4709	1419.0921	1463.5831	1501.9341	1520.9329	2239.7044	3009.7573	3032.0895	3039.912	3041.1843	3092.6488	3099.2539	3186.476	3215.3814	3506.7341
C#CCC12CN3CC1C23	C#CC[C@@]12CN3C[C@@H]1[C@@H]23	
InChI=1S/C8H9N/c1-2-3-8-5-9-4-6(8)7(8)9/h1,6-7H,3-5H2	InChI=1S/C8H9N/c1-2-3-8-5-9-4-6(8)7(8)9/h1,6-7H,3-5H2/t6-,7+,8-/m1/s1
