17
gdb 55717	2.30458	1.40207	1.00407	1.6972	72.96	-0.2523	0.0118	0.2641	1184.533	0.135825	-418.047313	-418.038173	-418.037229	-418.08212	33.26	
N	 0.6274446269	 0.5086316879	-0.4614394192	-0.508001
C	-0.289714684	 0.1200582259	 0.4716248846	 0.397986
O	-0.2366465853	 0.4571486918	 1.6381188029	-0.357528
C	-1.4064771354	-0.7884197041	-0.0525880966	-0.38989
C	-0.9492038882	-2.2461990554	-0.1418960614	 0.181604
C	-0.7331835568	-3.017532731	 1.1528796822	-0.284212
C	-1.9023127152	-3.3564396968	 0.2801933454	-0.308698
C	-0.0583121789	-2.5186310125	-1.2409211383	 0.248007
N	 0.6548574387	-2.6805776328	-2.1387625168	-0.358472
H	 1.4552376608	 0.9743907266	-0.1233295496	 0.263717
H	 0.6831164453	 0.0572975976	-1.3604477212	 0.27418
H	-2.2251796855	-0.7164014096	 0.6653322813	 0.135572
H	-1.7705209824	-0.4514272306	-1.0287387579	 0.128029
H	 0.0967490202	-3.7123543899	 1.1917709134	 0.142739
H	-0.8991531081	-2.4506127339	 2.0616439847	 0.156102
H	-2.8939649746	-3.0443003784	 0.5876790897	 0.135566
H	-1.8713134476	-4.2814969648	-0.2829264031	 0.143298
38.4764	69.3308	126.4004	190.9591	228.5611	297.0172	344.1379	400.6458	423.0931	530.2812	558.5935	572.4656	596.938	657.2942	766.7802	795.2513	852.2425	897.2039	933.0057	940.9584	980.8092	1003.5283	1070.963	1096.6156	1104.6908	1178.3003	1193.6786	1273.2606	1307.7437	1346.5787	1374.4089	1469.6342	1474.5255	1500.6745	1631.5579	1801.9286	2340.8246	3055.7786	3126.6315	3144.6501	3152.1063	3231.7348	3246.9353	3582.5742	3710.3424
NC(=O)CC1(CC1)C#N	NC(=O)CC1(CC1)C#N	
InChI=1S/C6H8N2O/c7-4-6(1-2-6)3-5(8)9/h1-3H2,(H2,8,9)	InChI=1S/C6H8N2O/c7-4-6(1-2-6)3-5(8)9/h1-3H2,(H2,8,9)
