21
gdb 60145	3.6303	0.89032	0.81764	1.9475	78.7	-0.2325	0.0711	0.3037	1480.9544	0.181464	-424.177903	-424.168668	-424.167724	-424.212464	34.79	
C	-0.0314083749	 1.5451317938	 0.0183617477	-0.405052
C	-0.091650434	 0.0195082439	-0.0428698589	 0.144877
O	 0.8416836282	-0.5701590279	 0.8643305281	-0.431982
C	-1.5121483667	-0.5188353496	 0.1863123423	-0.243604
C	-1.5776587605	-2.0243411809	 0.0487841268	-0.021526
C	-2.8515988673	-2.8515679627	 0.0263242465	-0.173601
C	-3.9192655407	-2.1531099035	-0.8092031608	-0.091267
O	-2.9958147034	-1.9705612613	-1.916549428	-0.284486
C	-1.9933567884	-2.7162683685	-1.2145353352	 0.083443
H	 0.9954193283	 1.8912148343	-0.1274195689	 0.122796
H	-0.6653314317	 1.9975356487	-0.750925797	 0.119716
H	-0.3804976386	 1.9096348137	 0.993232666	 0.103788
H	 0.2499443483	-0.3133429514	-1.0306045728	 0.094924
H	 0.6228190215	-0.2543277495	 1.7485148324	 0.274216
H	-1.8480331885	-0.2111224157	 1.1880205987	 0.080197
H	-2.1895917375	-0.052239973	-0.5363010595	 0.115173
H	-0.7702890857	-2.5445915968	 0.5590279866	 0.102798
H	-3.0183395005	-3.6978533109	 0.6792721903	 0.095622
H	-4.7393300854	-2.8165204577	-1.1059474848	 0.109192
H	-4.3280193804	-1.2038875372	-0.4425263872	 0.103034
H	-1.4015074524	-3.4217648079	-1.7867772123	 0.101742
51.9848	84.7248	136.5319	207.4896	240.8821	276.9805	303.7209	345.0881	412.3782	464.4914	500.6085	604.3937	746.8126	786.0558	808.4374	850.0819	877.1797	931.7478	950.3249	965.1062	976.1253	1007.7189	1031.1236	1057.7047	1067.1247	1082.4658	1093.705	1121.1055	1157.5576	1164.8297	1174.4857	1228.4232	1260.9171	1294.6845	1319.8997	1328.7118	1357.4982	1383.4026	1402.45	1421.9622	1443.0931	1470.9615	1492.2189	1495.3623	1517.0513	2995.3638	3021.7897	3022.7954	3042.3317	3069.6457	3077.992	3094.2109	3118.7417	3147.8373	3175.5202	3200.2823	3791.5568
CC(O)CC1C2COC12	C[C@@H](O)C[C@H]1[C@H]2CO[C@@H]12	
InChI=1S/C7H12O2/c1-4(8)2-5-6-3-9-7(5)6/h4-8H,2-3H2,1H3	InChI=1S/C7H12O2/c1-4(8)2-5-6-3-9-7(5)6/h4-8H,2-3H2,1H3/t4-,5+,6-,7+/m1/s1
