19
gdb 105692	2.81247	0.96725	0.88688	4.8608	72.59	-0.2731	0.0075	0.2805	1398.4987	0.156751	-460.165392	-460.155656	-460.154712	-460.201141	34.255	
C	 1.1317193981	-0.0252903371	 0.4587010705	-0.401024
C	 0.045079987	-0.0794071328	-0.6167282413	-0.253793
C	-1.3656277558	-0.3128042551	-0.1016161342	 0.395472
C	-2.4572744149	-0.2608399125	-1.1517478027	-0.163965
O	-2.4775401207	 1.0108447491	-1.8120556291	-0.182479
C	-3.2363079614	 1.9819551145	-1.2536250984	 0.179515
O	-3.2730342021	 3.0912071647	-1.6911786454	-0.272438
C	-1.6557094077	-1.0549491846	 1.1347425188	-0.228868
O	-1.7331819992	 0.3738808711	 1.1065843366	-0.265746
H	 2.0813581728	 0.2920028938	 0.0198084106	 0.120829
H	 0.8623423565	 0.6863714008	 1.2432942568	 0.142511
H	 1.2975466701	-1.0020846121	 0.9239935114	 0.11512
H	 0.0328639307	 0.8615673092	-1.1782257367	 0.134653
H	 0.271410201	-0.8652482024	-1.3492851598	 0.10513
H	-2.2836074943	-1.0001072826	-1.9384841573	 0.127991
H	-3.4301170862	-0.4616998165	-0.6889989857	 0.116176
H	-3.8079618253	 1.628576407	-0.3763423232	 0.092245
H	-2.6079019923	-1.5727025686	 1.2476123173	 0.114134
H	-0.8392047462	-1.463614826	 1.7248576119	 0.124537
54.5954	58.1583	90.4457	143.2986	215.1039	225.179	290.1526	314.219	349.6768	403.0031	438.0088	547.3956	678.7737	711.3966	778.0306	837.609	905.2472	944.988	985.4971	1020.2159	1033.3755	1051.4513	1092.2548	1118.9088	1139.5032	1147.3112	1174.3639	1245.4219	1295.5888	1316.0009	1376.6025	1389.2896	1406.4371	1424.3991	1440.1911	1485.1113	1487.4035	1498.4114	1511.3738	1534.0728	1868.7247	2979.1577	3028.1258	3042.4569	3045.1307	3069.6537	3089.3247	3104.3786	3111.441	3128.5163	3180.2153
CCC1(COC=O)CO1	CC[C@@]1(COC=O)CO1	
InChI=1S/C6H10O3/c1-2-6(4-9-6)3-8-5-7/h5H,2-4H2,1H3	InChI=1S/C6H10O3/c1-2-6(4-9-6)3-8-5-7/h5H,2-4H2,1H3/t6-/m1/s1
