13
gdb 23704	5.9321	1.5292	1.22508	3.9833	61.8	-0.2638	-0.0505	0.2132	910.7042	0.096378	-402.813808	-402.807059	-402.806115	-402.846798	23.846	
C	-0.0075652671	 1.51773002	 0.0102812941	-0.500619
C	-0.0034445342	 0.0129647522	 0.0021317959	 0.23028
C	-0.0034449528	-0.7346147406	-1.1757924294	-0.041668
N	 0.0212695575	-2.0685749627	-1.1997618568	-0.302435
C	 0.0441316658	-2.6460937581	-0.0125335664	 0.352387
F	 0.0745759995	-3.9655201281	-0.0198719135	-0.056565
N	 0.0355737861	-2.0814632912	 1.1810353237	-0.302459
C	 0.0106586378	-0.7473008475	 1.1717884031	-0.041733
H	 1.0119933015	 1.9205543156	 0.0027624117	 0.14546
H	-0.5227122907	 1.9178107669	-0.8676105935	 0.137359
H	-0.5059210566	 1.908167689	 0.9020796407	 0.137291
H	-0.028919694	-0.2398296976	-2.1450842801	 0.121355
H	-0.0031340328	-0.263014448	 2.1466011505	 0.121348
10.4307	130.0247	298.8694	340.3441	428.3536	490.0465	504.5522	541.6929	666.8719	767.8533	822.5172	901.5776	949.3881	1007.6527	1010.4481	1060.1816	1074.8198	1260.3305	1266.9186	1307.6606	1371.523	1412.2439	1418.9217	1486.0942	1492.1336	1494.4595	1604.2239	1639.7823	3034.787	3093.8872	3118.3302	3148.0786	3150.1576
CC1=CN=C(F)N=C1	Cc1cnc(F)nc1	
InChI=1S/C5H5FN2/c1-4-2-7-5(6)8-3-4/h2-3H,1H3	InChI=1S/C5H5FN2/c1-4-2-7-5(6)8-3-4/h2-3H,1H3
