17
gdb 35477	3.98346	1.18182	0.98898	3.8856	78.38	-0.2375	-0.0118	0.2257	1168.941	0.138208	-380.860357	-380.852865	-380.851921	-380.892504	28.92	
N	-0.1281276346	-1.1638202114	-0.2492968539	-0.319834
C	-0.0700274014	-0.015512682	-0.1331622043	 0.263215
C	 0.0021381511	 1.4373396013	 0.0268790688	-0.19338
C	-0.7336910177	 1.8655503606	 1.3211851229	-0.165392
N	-0.6328524809	 3.3155998888	 1.5378848142	-0.106894
C	 0.2090113607	 3.7493259229	 2.6570915458	-0.246909
C	 0.6731809216	 3.9241040789	 1.2509691731	-0.052497
C	 1.7368718431	 3.0808667832	 0.6545048437	-0.087511
C	 1.440362121	 1.9307813387	 0.0537746279	-0.064957
H	-0.5179039528	 1.8824389494	-0.8335106023	 0.148523
H	-1.7935772769	 1.6025738092	 1.2498093825	 0.127479
H	-0.30639451	 1.2930247559	 2.1539057464	 0.118438
H	-0.1603417564	 4.6011670124	 3.2216445328	 0.12221
H	 0.6954312614	 2.9777252824	 3.2505330852	 0.119579
H	 0.5978185338	 4.9247090893	 0.8244420878	 0.108321
H	 2.7563743389	 3.4561909209	 0.67083908	 0.108688
H	 2.1978460888	 1.3188739295	-0.4230088107	 0.120921
84.0499	154.236	189.6365	277.4442	400.6024	427.3198	471.4114	499.519	545.7754	596.5302	719.8746	734.1343	790.0146	814.4073	915.9726	940.1347	990.7864	1003.8218	1029.1289	1044.7058	1071.9962	1100.2881	1113.1212	1121.9369	1162.3007	1205.0945	1236.694	1291.9193	1302.4562	1317.9277	1351.9858	1401.0775	1420.0704	1494.6223	1516.395	1709.4398	2360.2691	3009.0179	3024.2736	3076.1377	3098.0185	3098.8031	3165.1123	3188.3151	3199.3213
N#CC1CN2CC2C=C1	N#C[C@H]1CN2C[C@H]2C=C1	
InChI=1S/C7H8N2/c8-3-6-1-2-7-5-9(7)4-6/h1-2,6-7H,4-5H2	InChI=1S/C7H8N2/c8-3-6-1-2-7-5-9(7)4-6/h1-2,6-7H,4-5H2/t6-,7+,9?/m0/s1
