19
gdb 69509	2.45427	1.63775	1.3549	0.8024	75.32	-0.2294	0.0736	0.303	1038.9076	0.157391	-422.976257	-422.967327	-422.966383	-423.009014	34.849	
C	 0.0260205558	 1.511553521	 0.1480643232	-0.48869
C	-0.051173147	 0.0155499814	 0.0349178407	 0.295135
C	 1.1361402455	-0.852243858	-0.3391415572	-0.414201
C	 0.4953847329	-1.0274308319	 1.0185080069	 0.28091
O	 1.1718060314	-0.7525933577	 2.1993210657	-0.473422
C	-0.787931561	-1.8119271383	 0.9169594334	 0.341314
O	-0.868157905	-3.1932787157	 0.8057156316	-0.472467
C	-1.9866940255	-0.9592475897	 1.2568872442	-0.366114
C	-1.3219149103	-0.7986501337	-0.0950519752	-0.173449
H	 0.9741033999	 1.8190110565	 0.6005074528	 0.124253
H	-0.0504869187	 1.993522241	-0.8333288653	 0.117718
H	-0.7845088264	 1.9011818513	 0.773700115	 0.118775
H	 1.0486407634	-1.6231154091	-1.0999768708	 0.113701
H	 2.0959015342	-0.3427539982	-0.3166963277	 0.106376
H	 1.9269116275	-1.3467333675	 2.2602298312	 0.287056
H	-1.0470345604	-3.5533550624	 1.680708835	 0.286227
H	-2.9311387101	-1.4954767643	 1.2394887023	 0.109522
H	-1.9222983163	-0.1724499796	 2.0034658163	 0.115335
H	-1.8357476797	-1.0349706252	-1.0197235121	 0.092022
154.3717	174.8222	192.4193	218.6311	233.3163	260.4788	284.9307	343.2541	449.7067	469.358	506.7611	561.2574	595.3877	664.9264	748.8821	801.407	806.2322	891.2612	935.2687	958.7047	981.2313	998.1687	1004.4001	1036.6209	1063.8577	1081.9398	1109.0851	1125.4331	1194.5109	1221.286	1265.7124	1281.8486	1312.9004	1344.9886	1379.1586	1411.7765	1423.2698	1484.6447	1487.3783	1497.6114	1505.1443	3025.9977	3085.0173	3101.3706	3109.693	3113.524	3180.7155	3196.6687	3203.0498	3802.7943	3805.2738
CC12CC1(O)C1(O)CC21	C[C@@]12C[C@]1(O)[C@@]1(O)C[C@@H]21	
InChI=1S/C7H10O2/c1-5-3-7(5,9)6(8)2-4(5)6/h4,8-9H,2-3H2,1H3	InChI=1S/C7H10O2/c1-5-3-7(5,9)6(8)2-4(5)6/h4,8-9H,2-3H2,1H3/t4-,5-,6+,7+/m0/s1
