19
gdb 113575	4.43373	0.94916	0.86595	2.4349	78.38	-0.243	0.0068	0.2498	1362.8811	0.159178	-423.016028	-423.007346	-423.006402	-423.050335	32.291	
O	 0.038669034	 1.3067294777	-0.4957488673	-0.418533
C	 0.0763491637	 0.1089052764	 0.262535349	-0.083649
C	-1.2983362788	-0.502582353	 0.372239714	-0.058946
O	-1.8010860053	-1.071062966	-0.8487614615	-0.31271
C	-1.5583332474	-1.9489809271	 0.2752603646	 0.415297
C	-0.4847604262	-3.0395943601	 0.1403991058	-0.313193
C	-1.1713181713	-4.3538525347	 0.6047324065	-0.274836
C	-2.5400248501	-3.9103363372	 1.061052999	-0.071041
C	-2.7441932712	-2.6059565681	 0.8838991864	-0.137197
H	-0.3592393565	 1.0796656831	-1.3441652761	 0.293008
H	 0.7766837462	-0.619070949	-0.1715226996	 0.090355
H	 0.4473824802	 0.3838966423	 1.2561289486	 0.110257
H	-2.0258197856	 0.1203587262	 0.8976145065	 0.090581
H	-0.1416200241	-3.0911247286	-0.8951755658	 0.123585
H	 0.3863544664	-2.8149307035	 0.7616660562	 0.113709
H	-1.2442513869	-5.0953413747	-0.200606106	 0.116126
H	-0.6141035481	-4.8405727919	 1.4137606978	 0.112573
H	-3.2627738142	-4.6035377811	 1.4771813614	 0.101933
H	-3.6485320247	-2.0563818809	 1.1155282905	 0.10268
42.9523	72.3114	134.6789	181.0312	264.8831	362.1963	389.3925	410.7028	468.6293	518.8261	604.118	732.2115	771.4529	795.0528	827.106	830.471	897.9038	923.6614	976.683	982.738	1015.0431	1044.8921	1068.202	1083.269	1117.0528	1122.6923	1176.7862	1216.6523	1237.8754	1244.6559	1274.048	1316.3167	1331.7132	1358.0222	1390.2219	1422.7059	1474.3407	1485.4937	1493.4074	1498.3879	1682.8154	3002.5906	3028.268	3052.757	3067.2396	3069.4361	3090.436	3113.9666	3189.4169	3217.1516	3798.1501
OCC1OC11CCC=C1	OC[C@H]1O[C@]21CCC=C2	
InChI=1S/C7H10O2/c8-5-6-7(9-6)3-1-2-4-7/h1,3,6,8H,2,4-5H2	InChI=1S/C7H10O2/c8-5-6-7(9-6)3-1-2-4-7/h1,3,6,8H,2,4-5H2/t6-,7+/m1/s1
