15
gdb 47990	4.8712	0.7693	0.73229	4.743	79.98	-0.2511	-0.0581	0.193	1506.4686	0.111214	-420.550609	-420.54239	-420.541446	-420.584806	28.847	
O	-0.1609557443	 0.089167789	 0.5452646353	-0.235944
C	-0.0116821036	 1.162954637	 0.0052236068	 0.015261
C	 1.2202648002	 1.900351766	-0.0237955061	 0.051181
C	 2.2422328098	 2.5477045211	-0.0561606915	 0.127107
C	 3.4490282206	 3.3038618655	-0.0872090059	-0.265679
C	 3.8964117199	 4.1257734829	-1.3061448256	-0.143756
C	 2.6823074536	 4.80193183	-1.9332123271	-0.097985
O	 2.3082753176	 5.3826178024	-0.6485911262	-0.27237
C	 3.4673228603	 4.8285212686	-0.0547090672	 0.10098
H	-0.8488384144	 1.6657128153	-0.5214611889	 0.096805
H	 4.2951230605	 2.8651784933	 0.436626503	 0.130483
H	 4.8678054339	 3.9793998849	-1.7572767847	 0.118445
H	 2.9470706944	 5.5925173759	-2.641812023	 0.123891
H	 1.89657664	 4.162059454	-2.3457493452	 0.126418
H	 3.9854373814	 5.3975115241	 0.7085256363	 0.125164
56.0185	72.9391	114.4678	163.7928	232.4436	350.2482	372.035	496.9189	578.6141	680.6778	751.9754	780.8542	799.2149	864.6921	922.9928	957.6937	976.7419	996.9632	1019.3285	1049.0036	1063.5333	1095.9012	1112.7339	1161.5718	1213.328	1254.4732	1300.4673	1355.9286	1412.7275	1422.8592	1505.7281	1760.4578	2312.9224	2913.1205	3047.8982	3104.0978	3142.4118	3184.9902	3214.3856
O=CC#CC1C2COC12	O=CC#C[C@H]1[C@H]2CO[C@@H]12	
InChI=1S/C7H6O2/c8-3-1-2-5-6-4-9-7(5)6/h3,5-7H,4H2	InChI=1S/C7H6O2/c8-3-1-2-5-6-4-9-7(5)6/h3,5-7H,4H2/t5-,6+,7-/m0/s1
