19
gdb 29509	2.97206	1.54912	1.04459	2.1593	83.56	-0.1692	0.0514	0.2206	1153.0953	0.162445	-382.100929	-382.092708	-382.091764	-382.133613	31.474	
C	 0.0218666395	 1.5342055388	 0.0158944295	-0.508742
C	-0.0008480007	 0.0364842075	 0.0264986162	 0.134901
C	-0.013875531	-0.8024490754	-1.0755889293	-0.165472
N	-0.0284649486	-2.1188249568	-0.6560655142	-0.388098
C	-0.0379440482	-2.1315197903	 0.7134762448	 0.289648
C	-0.0117660137	-0.8368274066	 1.1502691902	 0.205869
N	-0.0244658402	-0.7257479108	 2.570915677	-0.415446
C	-0.2449518629	-2.1296293048	 3.0309900791	-0.15542
C	 0.0404551884	-3.1136181654	 1.8373208216	-0.358227
H	 0.9618901577	 1.9373652636	 0.4137235186	 0.116056
H	-0.0948961067	 1.9234996327	-0.9999390098	 0.115075
H	-0.7850012967	 1.9507595193	 0.6296951111	 0.128454
H	-0.0342181686	-0.5590305619	-2.1266468084	 0.108845
H	-0.1076028318	-2.9138356049	-1.2643347914	 0.254865
H	 0.8607468396	-0.3711423678	 2.9222634482	 0.219992
H	 0.3630430218	-2.3457938824	 3.912994729	 0.099192
H	-1.2969167278	-2.2288570595	 3.3203384681	 0.114483
H	-0.7067392779	-3.9143555965	 1.8154102256	 0.104149
H	 1.026883968	-3.5965350388	 1.911212204	 0.099876
109.6251	137.396	157.1787	223.6399	246.7539	309.0826	399.3267	485.2985	584.9079	603.936	629.0086	664.8984	690.4904	746.4015	774.884	800.677	907.1833	926.9152	982.3234	999.3745	1046.8277	1063.7754	1076.3123	1111.1092	1182.6216	1195.5137	1234.595	1266.4407	1295.808	1351.8866	1371.9239	1398.1884	1418.5395	1444.6134	1481.858	1489.6791	1495.9722	1508.4139	1522.5419	1556.5749	1637.5383	2980.481	3018.0802	3035.773	3056.328	3065.8143	3099.0636	3101.6309	3250.8248	3479.3725	3687.5341
CC1=CNC2=C1NCC2	Cc1c[nH]c2c1NCC2	
InChI=1S/C7H10N2/c1-5-4-9-6-2-3-8-7(5)6/h4,8-9H,2-3H2,1H3	InChI=1S/C7H10N2/c1-5-4-9-6-2-3-8-7(5)6/h4,8-9H,2-3H2,1H3
