18
gdb 70526	2.59043	1.70249	1.2414	1.3725	71.2	-0.2455	0.0132	0.2586	1032.4918	0.148458	-439.069855	-439.061902	-439.060957	-439.102112	30.565	
C	 0.1514474685	 1.5164992624	-0.1736918553	-0.474246
C	 0.0110806754	 0.0254232322	 0.0033068188	 0.39011
C	-1.2516607796	-0.6107179766	-0.5477263056	-0.153742
O	-2.3462383677	-0.477091888	 0.3721530695	-0.22683
C	-2.2941058526	-1.1353110029	 1.5644186328	 0.139998
N	-1.3901230339	-1.772516034	 2.1709545511	-0.264996
C	-0.0146758343	-1.9386166624	 1.7031600085	-0.209
C	 0.6283433185	-0.6787600762	 1.1355247836	-0.017001
O	 1.2024557603	-0.7526469347	-0.1797051689	-0.29461
H	 1.038379014	 1.8886698249	 0.3443167199	 0.13056
H	 0.2410397873	 1.7713931615	-1.2355054459	 0.128496
H	-0.7306548168	 2.0290865991	 0.2238502433	 0.136397
H	-1.590926042	-0.1112353471	-1.4587128779	 0.117716
H	-1.0750697946	-1.6643610915	-0.7771633766	 0.129303
H	-3.2750989873	-1.0416735587	 2.0313305075	 0.124472
H	 0.5712436801	-2.2835415718	 2.5610130687	 0.114725
H	 0.0459694717	-2.7376455873	 0.9561005969	 0.129059
H	 1.2165846828	-0.0855699587	 1.8356441596	 0.099589
115.0099	179.2845	189.24	222.0116	333.637	358.4555	369.0199	416.7556	477.1457	530.0842	603.1498	743.5656	780.6122	820.1617	913.1862	931.8213	933.5223	960.8123	984.635	988.2448	1066.0374	1085.9014	1105.8776	1131.7762	1150.4906	1237.5562	1259.1512	1283.9764	1342.9354	1369.645	1396.7137	1414.1516	1433.2468	1472.5678	1486.4596	1490.1589	1509.3039	1518.4105	1749.5715	3036.1781	3040.1947	3064.7313	3073.2036	3101.1586	3112.7141	3118.9092	3127.3764	3136.7853
CC12COC=NCC1O2	C[C@]12COC=NC[C@H]1O2	
InChI=1S/C6H9NO2/c1-6-3-8-4-7-2-5(6)9-6/h4-5H,2-3H2,1H3	InChI=1S/C6H9NO2/c1-6-3-8-4-7-2-5(6)9-6/h4-5H,2-3H2,1H3/t5-,6+/m1/s1
