17
gdb 108966	4.18869	1.42096	1.25588	1.0934	71.9	-0.2208	0.0237	0.2445	1021.1734	0.138012	-417.95403	-417.946936	-417.945992	-417.98558	27.642	
C	-0.121023985	 1.3347741564	 0.0592035131	-0.234984
O	 0.0857197499	-0.0810674563	 0.0103428911	-0.242644
C	 0.7561474257	-0.5871000842	 1.0358184885	 0.435651
N	 1.2312579002	 0.0540320631	 2.0360512961	-0.347221
C	 1.7817171397	-0.9942868892	 2.8737277699	-0.006913
C	 0.9240695131	-2.2436531297	 3.2009716754	-0.097901
C	-0.1616849254	-2.4073641467	 2.1558870738	-0.190939
N	 0.8495406907	-2.0273923867	 1.0549620131	-0.218936
C	 1.940170383	-2.2458487458	 2.0815204884	-0.048939
H	 0.8375263598	 1.8607605253	 0.0657519737	 0.14317
H	-0.6897322725	 1.5833706846	-0.8370007743	 0.132914
H	-0.6763112752	 1.6092964513	 0.9604455441	 0.139181
H	 2.5082482612	-0.7045748174	 3.6219844627	 0.100416
H	 0.9728361853	-2.7137707766	 4.1750038015	 0.096706
H	-0.4549529523	-3.4484813603	 2.0106843624	 0.123705
H	-1.0534980798	-1.7722166659	 2.1918206286	 0.116415
H	 2.8203867717	-2.8366444321	 1.8612042819	 0.10032
112.6685	152.9751	235.5671	250.4727	356.5086	471.372	490.9711	680.7455	712.7949	752.375	782.5061	805.5235	824.7517	880.5685	900.2802	934.2457	982.8945	1010.2392	1024.5885	1041.6308	1055.4079	1064.299	1106.7394	1130.4278	1170.8138	1182.6837	1217.6116	1226.8432	1272.3712	1299.0606	1359.394	1372.9456	1473.5611	1478.043	1498.1146	1511.1465	1685.2603	3044.6188	3046.2879	3115.5337	3119.787	3156.8803	3185.4165	3194.8145	3208.3443
COC1=NC2C3CN1C23	CO[C]1[N][C@H]2[C@H]3CN1[C@@H]23	
InChI=1S/C6H8N2O/c1-9-6-7-4-3-2-8(6)5(3)4/h3-5H,2H2,1H3	InChI=1S/C6H8N2O/c1-9-6-7-4-3-2-8(6)5(3)4/h3-5H,2H2,1H3/t3-,4+,5-/m1/s1
