16
gdb 30370	4.45464	1.09828	0.88708	1.4544	77.39	-0.2292	-0.0321	0.1971	1271.4332	0.125296	-434.102769	-434.094433	-434.093489	-434.135989	30.466	
C	-0.4796788857	 1.4410063706	 0.704282699	-0.33942
N	-0.5040003257	-0.0026530359	 0.8317129177	-0.283518
C	-1.0386981644	-0.6602103308	-0.1247063168	 0.254584
N	-1.6279415574	-0.1636157835	-1.2689777504	-0.565867
C	-1.1032981603	-2.1298135492	-0.0480103483	 0.409627
N	-1.5237695284	-2.9305538495	-0.9848597237	-0.327784
C	-1.3872582385	-4.1980380904	-0.4459862984	-0.114489
C	-0.8822772111	-4.0861856121	 0.8068059008	-0.040693
O	-0.69788633	-2.7633165562	 1.0727267474	-0.153524
H	-0.0615082742	 1.8800589073	 1.6130962236	 0.126745
H	 0.1477436675	 1.7763427183	-0.1389751079	 0.107153
H	-1.4844518852	 1.8654981429	 0.5507019289	 0.116929
H	-1.3375269821	 0.747474429	-1.5829792066	 0.256865
H	-1.8173917763	-0.8415262819	-1.9924691899	 0.2713
H	-1.6581083613	-5.0860478292	-0.9941775296	 0.129563
H	-0.612748457	-4.7758143695	 1.5878550641	 0.152529
78.979	139.186	142.6364	165.3219	294.1184	307.3811	400.1574	408.4957	485.307	539.3826	629.7198	667.1481	747.6984	773.0264	791.4545	863.9675	935.8397	949.0017	1005.7596	1099.5924	1109.3634	1118.5629	1154.5541	1167.7335	1202.2732	1230.8175	1335.7617	1426.9116	1438.8816	1489.9274	1502.8528	1537.3065	1590.4781	1627.4447	1725.8342	2956.6607	3004.7861	3103.398	3265.874	3301.8778	3579.9719	3703.0926
CN=C(N)C1=NC=CO1	CN=C(N)c1ncco1	
InChI=1S/C5H7N3O/c1-7-4(6)5-8-2-3-9-5/h2-3H,1H3,(H2,6,7)	InChI=1S/C5H7N3O/c1-7-4(6)5-8-2-3-9-5/h2-3H,1H3,(H2,6,7)
