14
gdb 75857	3.39456	1.25448	0.94956	3.5072	72.7	-0.2427	-0.0575	0.1853	1142.138	0.102559	-432.91672	-432.908598	-432.907654	-432.949713	29.578	
N	 0.1785936362	 1.4538620702	-0.1484673444	-0.492547
C	 0.0040269702	 0.0207584531	-0.0055762986	-0.235721
C	 0.5915970037	-0.4983830941	 1.3353268491	 0.438026
O	 1.6624507253	-0.2667173019	 1.8260856539	-0.327939
N	-0.3940474256	-1.3207342036	 1.8861139903	-0.32706
C	-1.5540702367	-1.3103076053	 1.1316590587	-0.089403
C	-1.4142855196	-0.5583218211	 0.0213325946	 0.111
C	-2.3795988512	-0.3231489538	-0.975694793	 0.198516
N	-3.136530881	-0.0884945786	-1.8235483406	-0.34558
H	-0.1209458424	 1.7496174488	-1.0721811188	 0.251509
H	-0.3959520968	 1.9537882809	 0.5234276833	 0.238443
H	 0.5813112695	-0.4648657152	-0.8037173875	 0.143462
H	-0.2896911883	-1.7575845571	 2.787665723	 0.275765
H	-2.4206461332	-1.8656125824	 1.4617897798	 0.161529
73.5391	128.9663	174.4891	222.9489	289.0058	303.53	444.1964	469.0506	510.7068	539.0976	575.9816	635.1466	696.9749	744.2222	801.6131	844.2214	906.9799	927.7585	1088.4878	1123.3294	1156.9102	1197.487	1225.53	1259.0635	1335.6763	1394.9049	1414.7165	1661.2204	1669.4279	1867.4338	2325.0388	3031.2019	3241.3771	3499.6866	3581.894	3656.5002
NC1C(=O)NC=C1C#N	N[C@H]1C(=O)NC=C1C#N	
InChI=1S/C5H5N3O/c6-1-3-2-8-5(9)4(3)7/h2,4H,7H2,(H,8,9)	InChI=1S/C5H5N3O/c6-1-3-2-8-5(9)4(3)7/h2,4H,7H2,(H,8,9)/t4-/m1/s1
