16
gdb 8636	2.46551	1.78591	1.3618	0.9995	72.45	-0.2667	0.0118	0.2785	984.2458	0.125912	-346.527857	-346.518451	-346.517507	-346.561261	34.534	
C	-0.1480573242	 1.5548405225	 0.0029451757	-0.4015
C	 0.0184714046	 0.0354020387	 0.0064460697	-0.175378
C	 0.7865950123	-0.4998186581	 1.2418789303	-0.029114
O	 0.0247341891	-0.0956608875	 2.3826368267	-0.426967
C	 0.8731912489	-1.9705405319	 1.176626117	 0.325103
C	 0.9198191909	-3.1704090976	 1.135770691	-0.452182
C	 2.1505692068	 0.0589174855	 1.3081964163	 0.345663
C	 3.2576940452	 0.5191660228	 1.3881118167	-0.489851
H	 0.8224775776	 2.0586240628	-0.0201857204	 0.127359
H	-0.7142376812	 1.8678534772	-0.8791678393	 0.111341
H	-0.6849476583	 1.888490665	 0.8934930153	 0.13813
H	-0.9576812101	-0.4596447625	 0.014645804	 0.118141
H	 0.549839122	-0.3028871283	-0.8879174448	 0.115691
H	 0.4906329115	-0.4036876868	 3.1681603107	 0.289323
H	 0.9667134624	-4.2310225737	 1.1002286597	 0.200663
H	 4.2380856226	 0.9226084419	 1.4558728915	 0.203577
106.6382	129.4746	141.8246	172.2426	224.23	243.2732	299.1144	319.7517	403.7177	482.2303	514.9889	563.29	590.7733	639.0287	640.8062	664.836	665.3134	689.5095	791.7125	949.7011	986.189	1026.6558	1056.7763	1148.6422	1177.1019	1303.5784	1346.6197	1373.078	1408.747	1474.0017	1494.0829	1509.7093	2231.8856	2235.0028	3049.0463	3055.967	3098.8613	3116.5398	3136.3822	3499.3305	3500.2638	3808.123
CCC(O)(C#C)C#C	CCC(O)(C#C)C#C	
InChI=1S/C7H8O/c1-4-7(8,5-2)6-3/h1-2,8H,6H2,3H3	InChI=1S/C7H8O/c1-4-7(8,5-2)6-3/h1-2,8H,6H2,3H3
