16
gdb 22710	2.28121	1.45081	1.04804	1.1808	69.39	-0.2516	0.0043	0.2558	1146.3547	0.122165	-474.884463	-474.875865	-474.874921	-474.918198	31.698	
O	 0.4857464104	 0.5046569285	-0.8588933204	-0.412186
C	-0.2213638599	 0.2833651077	 0.3471423028	-0.211469
C	-1.466639321	-0.5146752042	 0.077074924	 0.301913
C	-1.7109741621	-2.0214855149	-0.231611685	-0.258311
C	-3.0988584306	-1.3488268642	-0.0561123021	-0.046459
O	-2.5420106074	-0.6135502737	 1.1186075635	-0.347472
C	-2.58237858	-0.1933195212	-0.9024286348	 0.489612
N	-2.7978625896	 0.6623887413	-1.7981415951	-0.336884
O	-4.0793659101	 0.5185301301	-2.3699523197	-0.392781
H	-0.0941638977	 1.0034686456	-1.4470499277	 0.302762
H	 0.451187643	-0.2606616925	 1.0166794402	 0.12577
H	-0.511061225	 1.2197445613	 0.8469426295	 0.115912
H	-1.4324564872	-2.4000119027	-1.2172764924	 0.121606
H	-1.4416577556	-2.6873160326	 0.5902453628	 0.117895
H	-4.089600924	-1.7845454009	 0.0370192515	 0.120622
H	-4.095225873	 1.2366261925	-3.011965227	 0.309469
57.4452	120.0231	140.1347	207.4384	275.0789	314.7956	373.1322	408.5616	435.0373	489.5162	567.3824	693.4673	717.1836	750.9002	765.6734	861.9815	897.8202	959.0929	963.7475	1008.9689	1038.0487	1065.9898	1082.4494	1113.6417	1170.8819	1198.9	1210.4959	1255.6991	1345.1066	1381.8634	1417.4216	1432.175	1479.2848	1500.8565	1833.0408	3000.3368	3069.2819	3090.098	3152.7778	3171.6599	3789.9737	3816.7873
OCC12CC(O1)C2=NO	OC[C@@]12C[C@@H](O1)C2=NO	
InChI=1S/C5H7NO3/c7-2-5-1-3(9-5)4(5)6-8/h3,7-8H,1-2H2	InChI=1S/C5H7NO3/c7-2-5-1-3(9-5)4(5)6-8/h3,7-8H,1-2H2/t3-,5-/m1/s1
