18
gdb 50080	3.33935	0.93529	0.78881	2.5437	73.44	-0.2536	-0.0337	0.2199	1417.2421	0.146984	-439.035578	-439.02679	-439.025846	-439.071094	30.804	
O	-0.2719889217	 0.3781284404	 0.8482707415	-0.255533
C	 0.3335765523	 0.7070101892	-0.140662103	 0.17151
C	 1.3868012019	 1.7609064487	-0.1470400854	-0.132393
N	 2.3405989515	 1.7121983553	-1.2745932661	-0.33987
C	 1.4329703803	 2.8480486698	-1.1910916643	-0.028596
C	 0.4116884333	 3.0193307789	-2.2827035484	-0.031445
C	-0.7638457836	 3.9835000779	-1.9917547343	-0.084686
O	-0.3804612274	 4.8561544736	-3.0726672703	-0.269236
C	 0.7597385214	 4.037440602	-3.3966835774	-0.086332
H	 0.1515476717	 0.2325867004	-1.1291956647	 0.087968
H	 1.7425897678	 2.0304284218	 0.8444996236	 0.108776
H	 3.2744813648	 1.9516056544	-0.9540354961	 0.246763
H	 1.8401177207	 3.7896439762	-0.819198026	 0.101743
H	 0.1046795028	 2.0474252527	-2.6694215144	 0.092837
H	-1.7689973544	 3.5687727917	-2.1309271646	 0.109389
H	-0.7217528363	 4.4897246254	-1.0179817954	 0.102702
H	 1.7075933341	 4.5752632758	-3.2575724163	 0.097783
H	 0.7172032209	 3.6555986859	-4.4232824284	 0.108619
36.405	47.8262	85.607	158.299	219.0618	312.1104	322.7435	408.0353	459.4007	545.9731	759.8089	821.7808	865.1684	890.198	911.8516	934.3987	980.51	990.2443	1037.4747	1040.4275	1050.2798	1075.1958	1089.7228	1149.3293	1160.3493	1163.2777	1208.4625	1224.2074	1249.5733	1270.9926	1310.3189	1318.7791	1364.7268	1383.5356	1424.2967	1477.1205	1512.1207	1537.6997	1822.808	2901.6412	3001.2337	3012.7941	3054.8315	3055.8319	3093.2465	3113.5712	3147.6644	3517.4574
O=CC1NC1C1COC1	O=C[C@H]1N[C@H]1C1COC1	
InChI=1S/C6H9NO2/c8-1-5-6(7-5)4-2-9-3-4/h1,4-7H,2-3H2	InChI=1S/C6H9NO2/c8-1-5-6(7-5)4-2-9-3-4/h1,4-7H,2-3H2/t5-,6+/m1/s1
