19
gdb 38757	2.38241	2.29801	1.81541	1.5716	72.28	-0.2481	0.0761	0.3242	866.1347	0.16369	-423.036359	-423.03009	-423.029146	-423.066667	26.858	
C	-0.0513312719	 1.5300632301	 0.197472082	-0.259734
C	 1.4888806507	 1.5693467569	-0.0406668962	-0.059841
C	 1.9432318686	 1.9416740127	-1.457647125	-0.211907
C	 1.3177602535	 1.02941469	-2.539856791	-0.239
C	 1.0412560078	-0.3775573822	-1.9782130798	 0.18442
O	-0.2244019137	-0.4405819217	-1.3246518444	-0.271981
C	-0.0264966307	-0.0081426615	 0.0144799606	 0.076395
C	 1.5258512546	 0.0110060236	 0.1407952671	 0.080036
O	 2.0009629778	-0.6998200153	-0.9863815272	-0.251842
H	-0.3222385227	 1.8142067853	 1.2182805421	 0.101349
H	-0.6862500936	 2.0789774358	-0.5022526491	 0.104622
H	 2.0546136933	 2.1389277915	 0.7006022806	 0.068672
H	 1.7203833292	 2.9932460652	-1.6660219507	 0.098383
H	 3.0324899078	 1.8359666245	-1.4969503083	 0.110254
H	 0.3723903033	 1.4305883365	-2.9175389334	 0.111968
H	 1.9980142118	 0.9525461039	-3.3941555336	 0.102397
H	 1.0557613838	-1.1524423616	-2.7484434489	 0.091449
H	-0.6427171462	-0.6243236544	 0.6716361879	 0.080507
H	 1.9977105366	-0.3804969992	 1.0408255872	 0.083856
169.3364	308.2618	322.2293	422.0789	453.2178	529.5393	626.8322	667.7552	746.8526	779.1355	799.6836	836.4421	858.1471	881.6749	894.7037	919.9208	950.0946	976.3281	987.4705	1041.8322	1073.6963	1084.153	1092.8143	1139.8956	1147.0993	1164.3296	1211.4316	1230.5839	1236.9187	1272.3645	1280.3489	1315.9448	1327.3434	1335.396	1355.297	1371.5324	1379.8104	1393.8641	1470.9182	1478.9044	1495.1156	3039.5583	3051.3012	3056.5464	3074.2764	3075.7168	3089.2882	3093.7251	3098.4762	3114.2105	3129.1173
C1C2CCC3OC1C2O3	C1[C@@H]2CC[C@@H]3O[C@H]1[C@H]2O3	
InChI=1S/C7H10O2/c1-2-6-8-5-3-4(1)7(5)9-6/h4-7H,1-3H2	InChI=1S/C7H10O2/c1-2-6-8-5-3-4(1)7(5)9-6/h4-7H,1-3H2/t4-,5+,6+,7-/m0/s1
