14
gdb 132959	2.41517	1.94117	1.08355	0.9976	66.58	-0.2474	-0.0465	0.2009	1010.949	0.101871	-478.04529	-478.037807	-478.036863	-478.077639	27.34	
C	-0.0116940006	 1.4700996486	 0.0120149769	-0.363651
N	-0.0035853724	 0.0040915872	 0.0140421817	-0.219538
C	-1.2511978689	-0.693083739	-0.1604790792	 0.431282
O	-2.2829317919	-0.0687511508	-0.3055269688	-0.385594
C	-1.0872835794	-2.1279611112	-0.1366291653	-0.230973
C	 0.1387643928	-2.6827607695	 0.0356345607	 0.010527
N	 1.2957367405	-1.9639640683	 0.1974417203	-0.370967
C	 1.1432577275	-0.6899298244	 0.1752869978	 0.438206
F	 2.2079498662	 0.0790521459	 0.3241254106	-0.054737
H	 0.6109149672	 1.8529872307	-0.7991662387	 0.151764
H	-1.0475684992	 1.7702797112	-0.1335923027	 0.184373
H	 0.3635326473	 1.8540636732	 0.9628258419	 0.151764
H	-1.9799270757	-2.7257947408	-0.2614406733	 0.12649
H	 0.2655025564	-3.7608610728	 0.0540599581	 0.131054
91.0655	121.9294	207.7744	248.9384	335.1804	392.6618	465.7145	499.5877	556.8817	593.6746	717.8476	718.9374	778.6414	834.7902	856.5402	967.8822	1009.124	1071.4916	1156.2497	1169.7134	1189.5182	1241.8941	1315.3648	1401.5338	1435.8329	1478.6634	1502.1115	1503.853	1589.3962	1673.5543	1796.3669	3064.5845	3134.6391	3180.4049	3182.3419	3231.5656	91.0656	121.9294	207.7743	248.9384	335.1804	392.6618	465.7145	499.5877	556.8817	593.6746	717.8474	718.9374	778.6413	834.7903	856.5403	967.8822	1009.1243	1071.4915	1156.2497	1169.7135	1189.5183	1241.8941	1315.365	1401.5338	1435.8331	1478.6634	1502.1115	1503.8529	1589.396	1673.5543	1796.3672	3064.5844	3134.6391	3180.4049	3182.3419	3231.5656
CN1C(=O)C=CN=C1F	Cn1c(=O)ccnc1F	
InChI=1S/C5H5FN2O/c1-8-4(9)2-3-7-5(8)6/h2-3H,1H3	InChI=1S/C5H5FN2O/c1-8-4(9)2-3-7-5(8)6/h2-3H,1H3
