18
gdb 100169	2.0357	1.49367	1.09074	1.1975	68.7	-0.2493	-0.0406	0.2087	1157.9076	0.144932	-476.261785	-476.251553	-476.250608	-476.297087	36.61	
C	-0.0448545987	 1.5114344313	-0.0146910004	-0.415777
C	 0.0309987038	-0.0405045679	 0.0049416583	 0.036774
C	 0.7593723383	-0.5236099357	 1.2687992794	-0.120797
O	 0.0279395631	-0.0489041756	 2.3936328422	-0.432971
C	-1.4056974433	-0.5604738403	 0.0150634337	 0.145187
O	-2.1488091813	-0.5586121336	-0.9403420334	-0.283517
C	 0.8372973525	-0.51267587	-1.2306605464	 0.379578
N	 0.1994101184	-0.3895883348	-2.4230272608	-0.5262
O	 1.9852135914	-0.9021610378	-1.1155986899	-0.372641
H	 0.9669625365	 1.9235861139	-0.0728986671	 0.135774
H	-0.6156030023	 1.8597983132	-0.8775437441	 0.133688
H	-0.5140873919	 1.8756293185	 0.9014083524	 0.146687
H	 0.8173374473	-1.621815814	 1.2638005472	 0.10233
H	 1.7862441437	-0.1437670478	 1.2551598215	 0.12251
H	 0.4737964695	-0.349627684	 3.1902013553	 0.295369
H	-1.7559131878	-0.9221807559	 1.0004053795	 0.120673
H	-0.8086475107	-0.3061128249	-2.4282166359	 0.276163
H	 0.6702631415	-0.7716177545	-3.2283056414	 0.257167
50.8408	87.298	134.2061	190.8577	230.039	249.4227	252.5056	283.6399	296.7066	341.1069	387.7179	406.6937	501.2835	592.4147	624.9759	653.7318	717.7871	783.8072	898.2048	930.3486	985.404	1004.2396	1068.9648	1135.2588	1138.8702	1178.017	1204.773	1265.7888	1284.522	1343.3501	1393.2478	1425.608	1450.388	1487.3332	1503.8121	1517.5356	1617.0422	1786.6079	1798.4641	2960.1862	3001.1822	3050.4525	3068.9455	3127.2313	3145.4681	3533.9251	3685.8104	3841.704
CC(CO)(C=O)C(N)=O	C[C@@](CO)(C=O)C(=O)N	
InChI=1S/C5H9NO3/c1-5(2-7,3-8)4(6)9/h2,8H,3H2,1H3,(H2,6,9)	InChI=1S/C5H9NO3/c1-5(2-7,3-8)4(6)9/h2,8H,3H2,1H3,(H2,6,9)/t5-/m0/s1
