18
gdb 72068	2.49633	1.71505	1.3296	2.7786	78.	-0.2383	-0.03	0.2083	1018.3911	0.147347	-401.889451	-401.881431	-401.880486	-401.921941	30.423	
C	-0.3238217096	 1.3737910824	 0.0921232006	-0.508277
C	 0.009463984	-0.0856442972	 0.0531555602	 0.268193
C	 0.9153847282	-0.858076922	-0.9023776138	-0.222714
N	 0.1891938553	-2.1404700602	-0.5516542723	-0.211251
C	 0.5698799301	-2.2932779833	 0.9089938823	-0.182016
C	-0.2068259668	-1.0225537435	 1.225482853	-0.163474
C	-0.9734764399	-1.2571968071	-0.0726943401	 0.258449
C	-2.3906640112	-1.3004425311	-0.3971452537	-0.00015
O	-3.2104677785	-0.5412006384	 0.0765655314	-0.287754
H	 0.4645358625	 1.9474019615	 0.5922406637	 0.126413
H	-0.444475378	 1.7751549913	-0.9192982306	 0.128283
H	-1.2633642959	 1.5362975674	 0.6280641567	 0.152848
H	 0.7240816613	-0.6033773903	-1.9480671735	 0.114699
H	 1.9957339766	-0.8825167595	-0.7179708122	 0.101381
H	 0.0975228159	-3.1891909935	 1.3178800047	 0.119459
H	 1.6491965997	-2.3219873074	 1.0946901326	 0.104576
H	-0.6316500668	-0.675695662	 2.1590462723	 0.114954
H	-2.6716839268	-2.0843600871	-1.1332979013	 0.086382
112.9053	134.6589	184.7206	194.7298	271.7773	301.7494	403.6614	494.9406	526.1986	612.6807	699.782	753.7737	763.3824	834.1429	879.8585	926.4311	928.9588	970.3018	990.3599	1018.0317	1041.5781	1060.4991	1092.5732	1121.4152	1157.357	1190.2213	1219.0542	1227.6546	1254.3341	1297.6037	1330.2711	1407.0165	1416.2193	1446.9043	1486.0083	1497.6798	1500.4817	1523.8471	1771.14	2897.4968	3031.3783	3033.6982	3044.8968	3094.7329	3101.3212	3111.6752	3115.4208	3202.2894
CC12CN3CC1C23C=O	C[C@@]12CN3C[C@@H]1[C@@]23C=O	
InChI=1S/C7H9NO/c1-6-3-8-2-5(6)7(6,8)4-9/h4-5H,2-3H2,1H3	InChI=1S/C7H9NO/c1-6-3-8-2-5(6)7(6,8)4-9/h4-5H,2-3H2,1H3/t5-,6+,7-/m0/s1
