18
gdb 48631	3.27917	1.42854	1.1957	2.68	71.84	-0.2371	-0.0355	0.2017	1049.2658	0.14921	-439.064862	-439.05732	-439.056376	-439.09701	29.198	
O	-0.0742209538	-0.0458663199	 0.0473492039	-0.25668
C	 0.0056869637	 1.1497453251	-0.0812982542	 0.095944
C	 1.2906280999	 1.9359984807	-0.0231694522	 0.183234
C	 1.5105581055	 2.8636007372	 1.2169871193	-0.254916
C	 2.2208313333	 3.7616044288	 0.1745113711	-0.011463
C	 3.6464222601	 3.2448075332	-0.0363627334	-0.078714
O	 3.7142675378	 1.8372674977	 0.1605851617	-0.260125
C	 2.5612907473	 1.1141194364	-0.2562468183	-0.121409
N	 1.3008940746	 3.179898393	-0.8474062184	-0.345011
H	-0.8897772181	 1.7904641398	-0.2444103241	 0.087853
H	 0.5753244891	 3.3013460298	 1.5667243857	 0.117576
H	 2.0962791272	 2.4578336339	 2.0406282862	 0.126512
H	 2.1831990102	 4.8498796262	 0.2772964815	 0.078468
H	 3.9876412113	 3.5211093004	-1.049426206	 0.090074
H	 4.344910082	 3.6840360743	 0.6846933816	 0.113692
H	 2.5436452314	 0.1874321284	 0.3229442522	 0.132097
H	 2.626181284	 0.8460627304	-1.3242530053	 0.094
H	 1.7269464344	 3.0555981047	-1.7665692714	 0.208869
78.971	182.5741	220.1495	237.9019	358.0675	398.986	440.1716	446.515	568.2951	636.3505	720.647	826.0606	849.0123	882.3886	893.0368	926.2166	964.3233	994.8975	1014.9734	1038.1555	1055.5883	1097.7328	1129.2051	1142.0586	1185.5082	1213.5974	1243.1427	1252.5229	1256.3236	1313.4859	1323.257	1369.2935	1377.5094	1404.6379	1412.0022	1476.211	1498.4272	1505.269	1823.0534	2889.4189	2954.1255	2967.7851	3059.7669	3070.491	3095.2448	3099.2727	3164.779	3438.3831
O=CC12CC(COC1)N2	O=C[C@@]12C[C@@H](COC1)N2	
InChI=1S/C6H9NO2/c8-3-6-1-5(7-6)2-9-4-6/h3,5,7H,1-2,4H2	InChI=1S/C6H9NO2/c8-3-6-1-5(7-6)2-9-4-6/h3,5,7H,1-2,4H2/t5-,6-/m0/s1
