21
gdb 107202	3.76092	1.22253	1.10083	2.9313	81.2	-0.2267	0.0704	0.2971	1189.6957	0.185049	-383.236599	-383.228554	-383.22761	-383.269084	32.228	
C	-0.3602149528	 1.4681002846	 0.1341821188	-0.379197
C	 0.2024212857	 0.0610410859	-0.1035197552	-0.246627
C	 0.9100973887	-0.5018201083	 1.1099109462	 0.337398
C	 2.2338638831	 0.1410990241	 1.5605675028	-0.297772
C	 3.0428492578	-0.9647108082	 2.2314651571	-0.033002
N	 2.4181061697	-1.5346047716	 3.4431493154	-0.347079
C	 2.2803326254	-2.2380248994	 2.1468950138	-0.049031
C	 0.9581013852	-1.9582514585	 1.4554832024	-0.094176
N	 0.0258300798	-1.058576183	 2.1473968198	-0.375213
H	 0.4352794996	 2.1891914228	 0.35175268	 0.110588
H	-0.9032843215	 1.8302144905	-0.7441706176	 0.107972
H	-1.0508547183	 1.4618328191	 0.983065975	 0.131198
H	-0.6173150705	-0.6170429665	-0.3637119048	 0.103637
H	 0.8934458473	 0.072078759	-0.9571153009	 0.085845
H	 2.779022371	 0.5036576706	 0.6810533255	 0.102152
H	 2.0806027076	 0.9990376882	 2.2244873025	 0.113507
H	 4.1268632482	-0.9337432339	 2.1812030335	 0.088276
H	 3.1246557432	-1.993382545	 4.0124000716	 0.233347
H	 2.7585392449	-3.2021281178	 2.0167376821	 0.085259
H	 0.5150850441	-2.7383019687	 0.8435210467	 0.081476
H	 0.4016395017	-0.8801479337	 3.0790791352	 0.24144
80.3442	140.2933	214.8727	266.4574	309.23	366.011	376.9956	434.1768	595.2258	633.9412	695.4023	718.8878	781.2313	799.9962	841.436	859.2832	891.0074	892.4957	949.8991	968.3884	981.0637	996.3181	1051.3889	1063.7576	1080.1709	1110.5378	1126.8072	1144.5547	1146.3732	1191.3843	1206.5991	1254.6338	1276.0159	1300.117	1311.4853	1334.2522	1358.2443	1374.8254	1404.9458	1414.9386	1436.063	1473.0538	1477.7286	1499.7154	1508.3449	3017.6728	3033.2452	3036.9509	3068.7441	3076.0626	3101.0962	3111.7625	3150.0404	3154.3586	3180.7569	3454.193	3503.5384
CCC12CC3NC3C1N2	CC[C@]12C[C@H]3N[C@H]3[C@H]1N2	
InChI=1S/C7H12N2/c1-2-7-3-4-5(8-4)6(7)9-7/h4-6,8-9H,2-3H2,1H3	InChI=1S/C7H12N2/c1-2-7-3-4-5(8-4)6(7)9-7/h4-6,8-9H,2-3H2,1H3/t4-,5-,6-,7+/m1/s1
