16
gdb 5088	3.36707	1.95425	1.257	0.9712	68.29	-0.1845	0.0356	0.22	944.9463	0.131404	-379.946842	-379.938667	-379.937723	-379.978865	30.508	
C	-0.0718587877	 1.5274206684	-0.0279439636	-0.511983
C	-0.0097332999	 0.0338420206	 0.0092406661	 0.222078
C	 0.0504169451	-0.8317256119	-1.0384729896	-0.118869
O	 0.0756358357	-2.1221589402	-0.6225960314	-0.177623
C	 0.0480972441	-2.0907683703	 0.7595940103	 0.224651
N	 0.0577326978	-3.2771305093	 1.4954583609	-0.602626
C	-0.0121506309	-0.7978384469	 1.1867232656	 0.107815
N	-0.1464866841	-0.3547658307	 2.5105990053	-0.614164
H	 0.8086145142	 1.9876206318	 0.4391249384	 0.118696
H	-0.1239278591	 1.8944890303	-1.0567635321	 0.124039
H	-0.9502976666	 1.9025342625	 0.5099283705	 0.135047
H	 0.0827038469	-0.6765686589	-2.1053975251	 0.123779
H	-0.7873014568	-3.8278724874	 1.3718630474	 0.243136
H	 0.8495743228	-3.870524651	 1.2672345395	 0.24203
H	 0.0290581262	-1.1144937643	 3.158818459	 0.245779
H	 0.4672115423	 0.4215162274	 2.728095739	 0.238215
143.9393	151.9187	222.8372	226.2414	269.9481	303.0447	308.8207	342.3016	504.4829	571.16	608.7652	682.7843	726.3481	736.9386	762.0902	795.7403	820.5689	973.1671	1012.4725	1065.2145	1127.944	1177.625	1212.2718	1226.0862	1305.9499	1312.0438	1419.085	1457.7717	1481.1424	1503.3216	1609.8678	1638.5068	1657.3808	1729.392	3017.1431	3066.2245	3108.255	3260.6375	3480.4802	3512.5987	3543.5658	3603.8012
CC1=COC(N)=C1N	Cc1coc(N)c1N	
InChI=1S/C5H8N2O/c1-3-2-8-5(7)4(3)6/h2H,6-7H2,1H3	InChI=1S/C5H8N2O/c1-3-2-8-5(7)4(3)6/h2H,6-7H2,1H3
