20
gdb 58667	1.87878	1.46808	1.13825	1.8792	82.34	-0.2411	0.028	0.2691	1220.6275	0.167721	-403.093872	-403.083442	-403.082497	-403.128964	38.566	
C	 0.3397939412	 1.431481261	 0.3397622181	-0.412992
C	-0.1728055238	 0.0372585476	-0.0211960115	 0.068876
O	-1.5781280694	 0.0145866858	-0.2238094706	-0.433753
C	 0.5524482583	-0.5366779031	-1.2426417732	 0.11329
N	 1.9295070142	-1.0305206454	-0.9994221523	-0.373698
C	 0.8872408713	-1.9955064232	-1.3738771767	-0.038431
C	 0.5007578012	-3.0511168518	-0.3671134801	-0.404559
C	 0.2856845343	 0.1786937006	-2.4675312017	 0.267612
C	 0.0418695156	 0.8049550235	-3.4670541116	-0.45047
H	 1.4091621116	 1.3978743455	 0.5677374348	 0.12996
H	 0.1880121952	 2.1289885577	-0.4913607632	 0.116805
H	-0.1982651133	 1.8101251966	 1.2126169633	 0.120775
H	 0.0074110451	-0.6349826295	 0.8206642463	 0.094436
H	-1.7657255594	 0.5630076301	-0.9953402109	 0.281577
H	 2.523995673	-0.8085659263	-1.7938635759	 0.238903
H	 0.9048013593	-2.3490929052	-2.4036344458	 0.093886
H	 0.6069907885	-2.6902942564	 0.6572946371	 0.133596
H	-0.5341231796	-3.3722706169	-0.5210229603	 0.132409
H	 1.149893495	-3.9262480188	-0.4780317111	 0.12141
H	-0.1617295783	 1.3439995882	-4.3593614246	 0.20037
63.1403	121.5991	135.5531	146.6774	190.412	218.9523	251.7197	315.3361	345.6337	365.3991	381.7377	479.1609	503.1104	564.3215	584.6249	601.5671	668.8519	686.4747	808.6651	863.0414	905.2748	951.1809	1023.5036	1025.1641	1056.8594	1081.5571	1108.8902	1120.8782	1131.3744	1239.5028	1251.4194	1310.7587	1324.9963	1365.8846	1398.9958	1407.1003	1420.0916	1451.9026	1487.0851	1492.0979	1495.7317	1499.8705	2219.9425	3037.6891	3041.6774	3087.787	3103.8386	3113.4427	3116.9977	3125.3962	3139.7561	3499.2274	3507.3197	3782.0358
CC(O)C1(NC1C)C#C	C[C@@H](O)[C@]1(N[C@H]1C)C#C	
InChI=1S/C7H11NO/c1-4-7(6(3)9)5(2)8-7/h1,5-6,8-9H,2-3H3	InChI=1S/C7H11NO/c1-4-7(6(3)9)5(2)8-7/h1,5-6,8-9H,2-3H3/t5-,6+,7-/m0/s1
