14
gdb 18216	4.42949	1.82203	1.40561	3.47	63.78	-0.2557	-0.0757	0.18	848.6	0.108288	-378.706656	-378.700132	-378.699188	-378.737565	24.096	
O	-0.9708427908	 1.479679339	 0.0461670441	-0.236914
C	 0.1500168561	 1.0945176425	 0.2556837871	 0.114395
C	 1.3599706325	 1.9640820934	 0.1827999246	 0.229718
N	 2.5253011672	 1.4631460026	 0.3434972275	-0.23774
C	 3.4952857026	 2.5599731664	 0.1866320046	-0.196259
C	 2.6534188824	 3.7817342742	-0.1831821878	-0.034034
C	 1.7989815117	 3.711312742	-1.3916288139	-0.247954
N	 1.2322022694	 3.3629711095	-0.061062923	-0.13849
H	 0.3944997578	 0.0439282026	 0.5095394781	 0.104329
H	 4.0252863196	 2.707093709	 1.1350904605	 0.133123
H	 4.2480371991	 2.2822361542	-0.5595510106	 0.130994
H	 2.8999693571	 4.7490298917	 0.2409646037	 0.111598
H	 1.3952638805	 4.6205153278	-1.8244779253	 0.135683
H	 1.9570336249	 2.8950483951	-2.0919987995	 0.131552
97.1704	185.0076	244.5641	309.1914	367.2459	492.1477	637.4525	709.3736	738.8249	784.6133	846.2737	878.9414	926.0919	987.0232	992.3626	1039.2898	1079.7025	1086.9828	1113.7547	1159.0534	1201.937	1227.4368	1296.3546	1348.3623	1371.8951	1393.1922	1477.3439	1503.203	1665.9006	1819.4174	2944.8292	3038.8986	3070.7659	3115.81	3171.8497	3210.8651
O=CC1=NCC2CN12	O=CC1=NC[C@H]2CN12	
InChI=1S/C5H6N2O/c8-3-5-6-1-4-2-7(4)5/h3-4H,1-2H2	InChI=1S/C5H6N2O/c8-3-5-6-1-4-2-7(4)5/h3-4H,1-2H2/t4-,7?/m0/s1
