17
gdb 17267	3.17145	2.16111	1.82102	1.6892	69.18	-0.2458	0.0701	0.3159	808.2209	0.14226	-363.76398	-363.756974	-363.756029	-363.794663	28.127	
O	-0.0676147232	 1.3855058406	 0.0417943936	-0.465729
C	 0.0206661767	 0.0070142621	 0.0263588975	 0.258003
C	 0.5425910196	-0.9711101066	-1.0636627318	-0.233127
N	-0.0154599914	-1.917919355	 0.0144828795	-0.179854
C	 0.6694658307	-0.986436783	 1.0310798203	-0.233098
C	-1.1717054128	-0.9333004321	 0.0917045421	 0.434616
C	-2.3852789934	-1.0450169147	 0.9330181432	-0.382667
C	-2.4780313646	-1.0338092532	-0.5985601319	-0.382669
H	 0.8201519223	 1.7560998391	-0.0104479744	 0.284611
H	 0.000874643	-1.0218306863	-2.0099453915	 0.109376
H	 1.6236273892	-1.0668256699	-1.1989040306	 0.093589
H	 1.7588345207	-1.0831735501	 1.0334692452	 0.093585
H	 0.2458557592	-1.0514056878	 2.0349769986	 0.109376
H	-2.5747465671	-1.9889898134	 1.4335115624	 0.123826
H	-2.728783901	-0.1665809867	 1.4697048738	 0.123172
H	-2.8829992547	-0.1479352261	-1.0770023317	 0.123168
H	-2.7273538132	-1.9705451469	-1.0862484643	 0.123824
187.2885	216.7382	229.9742	253.1284	384.4168	405.7464	502.7675	630.6382	631.5431	657.85	766.0819	774.6253	796.9495	899.5586	900.235	958.3223	965.0833	969.1156	1025.1386	1044.0837	1078.3963	1086.5673	1096.2728	1109.2958	1154.2287	1179.8524	1182.3268	1185.0854	1255.1463	1289.064	1308.7295	1433.6543	1450.0216	1496.9066	1511.6438	1554.6724	3052.6543	3059.3983	3126.5202	3129.1192	3132.5489	3134.9196	3208.1426	3221.2134	3809.1917
OC12CN(C1)C21CC1	O[C@@]12CN(C1)C12CC1	
InChI=1S/C6H9NO/c8-6-3-7(4-6)5(6)1-2-5/h8H,1-4H2	InChI=1S/C6H9NO/c8-6-3-7(4-6)5(6)1-2-5/h8H,1-4H2
