17
gdb 11769	4.4855	1.67761	1.52803	4.33	72.45	-0.3017	0.0288	0.3305	869.8037	0.145558	-326.74046	-326.734002	-326.733057	-326.770857	25.961	
N	 0.0077071087	-1.1421083076	-0.0256686045	-0.346067
C	 0.0073725549	 0.0144298045	-0.0119898559	 0.157648
C	 0.0108553855	 1.4596956595	 0.0097767033	 0.230316
C	-0.2899971456	 2.2662434276	 1.3156284884	-0.251239
C	 0.4326048089	 3.4002367988	 0.5339197872	-0.033242
C	 1.3390461108	 2.2829440267	-0.0570030484	-0.251236
C	-0.546850916	 3.6688108783	-0.6252203632	-0.217041
C	-0.8735588227	 2.194002974	-1.0309197915	-0.255017
H	-1.3394712225	 2.403852827	 1.5884666067	 0.105298
H	 0.2837936041	 1.8986695586	 2.1677849984	 0.117492
H	 0.8561812567	 4.2621899286	 1.047113115	 0.073913
H	 2.0859310049	 1.9171309585	 0.6492977611	 0.117493
H	 1.7841861389	 2.4358756206	-1.0435295507	 0.105298
H	-1.4345441296	 4.2174287981	-0.2995139565	 0.10598
H	-0.0819767181	 4.2313108003	-1.4391929546	 0.10598
H	-0.576490682	 1.9531820998	-2.0541689474	 0.117213
H	-1.929395417	 1.9393022869	-0.9142183873	 0.117212
160.549	164.9139	307.5756	424.2271	479.8721	510.1868	549.4171	564.946	663.0322	831.4759	832.2585	839.1215	890.4086	908.9761	936.5218	978.0763	981.0654	1001.2714	1008.0122	1084.9349	1114.9817	1149.6016	1150.1984	1206.6646	1218.6304	1241.5035	1243.4867	1266.651	1273.4786	1318.2289	1334.6601	1486.0099	1497.2829	1502.6428	1532.7167	2351.4728	3059.6773	3063.8994	3067.631	3073.5907	3100.0041	3121.7071	3129.0225	3133.7164	3138.1417
N#CC12CC(C1)CC2	N#C[C@@]12C[C@@H](C1)CC2	
InChI=1S/C7H9N/c8-5-7-2-1-6(3-7)4-7/h6H,1-4H2	InChI=1S/C7H9N/c8-5-7-2-1-6(3-7)4-7/h6H,1-4H2/t6-,7-
