14
gdb 101966	1.78798	1.43965	1.39523	3.9002	69.63	-0.2753	-0.0674	0.2079	1081.2651	0.095723	-436.633825	-436.623968	-436.623024	-436.668989	33.491	
C	-0.3051448256	 1.3150300206	 0.2361863253	-0.267534
O	-0.1502377806	-0.0993351118	 0.1050820693	-0.261421
C	 0.5853123989	-0.5186885533	-1.0283172988	-0.039072
C	 2.0795668341	-0.0858135004	-0.8473039061	 0.133865
O	 2.7280607061	 0.5061709878	-1.6562961015	-0.209593
C	 0.5867065837	-1.9799221363	-1.0583577741	 0.274834
C	 0.6773532742	-3.1765700952	-1.0758454929	-0.377085
C	 0.034081095	 0.0246058927	-2.2911469695	 0.296895
N	-0.4184535669	 0.4749850091	-3.2527830293	-0.329423
H	 0.6614947165	 1.8319835901	 0.2940254102	 0.131458
H	-0.8829534132	 1.7318499992	-0.5964729939	 0.15227
H	-0.8482656131	 1.4645101347	 1.1698179505	 0.149803
H	 2.4561846141	-0.3981390923	 0.1483349871	 0.123506
H	 0.7282683468	-4.2382330049	-1.0984439765	 0.221496
60.9904	107.7971	124.2162	139.3347	160.0382	185.0099	217.4218	310.7772	363.6301	416.2307	469.5594	507.437	564.3074	641.5766	666.7692	691.2481	714.5236	939.8519	996.3238	1067.6126	1103.5344	1157.9838	1182.0704	1232.2721	1383.8551	1478.298	1487.9235	1507.8425	1853.3122	2245.1237	2364.8755	2934.2015	3013.9129	3082.9773	3148.6817	3496.0835
COC(C=O)(C#C)C#N	CO[C@@](C=O)(C#C)C#N	
InChI=1S/C6H5NO2/c1-3-6(4-7,5-8)9-2/h1,5H,2H3	InChI=1S/C6H5NO2/c1-3-6(4-7,5-8)9-2/h1,5H,2H3/t6-/m0/s1
