15
gdb 29082	3.12095	1.46014	1.00093	4.7888	74.16	-0.2122	-0.0462	0.166	1125.5064	0.113435	-454.000888	-453.992896	-453.991952	-454.033528	29.824	
C	 0.0380969611	 1.5219385252	 0.2200215155	-0.468253
C	-0.0980123959	 0.0477384897	 0.0667169217	 0.336401
C	-1.1801070355	-0.6326061899	-0.3191549432	-0.126589
N	-1.1610819876	-2.0143947094	-0.4175602958	-0.352005
C	-0.0476435119	-2.7686061001	-0.1314991788	 0.245381
N	-0.0511250307	-4.0383363732	-0.2296138412	-0.515516
C	 1.174373067	-1.9828231437	 0.3058970966	 0.372236
O	 2.2080731197	-2.5223450919	 0.5840829571	-0.31751
O	 1.0749887886	-0.6290670073	 0.3784683281	-0.248921
H	 0.826166106	 1.9147192016	-0.4325693778	 0.14465
H	-0.9010937924	 2.018664584	-0.0329853611	 0.133512
H	 0.3061202667	 1.7879475078	 1.2489039895	 0.144655
H	-2.1069952722	-0.1378480648	-0.5686165359	 0.13776
H	-1.981700764	-2.5222790821	-0.7096499879	 0.26854
H	 0.8723485311	-4.386252026	 0.0290534332	 0.245659
85.0771	136.4311	183.4436	283.8262	288.2149	354.2987	415.8081	468.882	519.7904	555.7307	583.3793	584.1115	685.0875	787.5672	799.3277	812.5522	883.781	991.8547	1010.6905	1070.0382	1084.6008	1157.1972	1210.5924	1258.6491	1344.9322	1423.7872	1433.8954	1465.246	1471.4506	1494.8167	1721.062	1761.2168	1846.3574	3030.7773	3082.1747	3130.4142	3245.3298	3496.1843	3633.6999
CC1=CNC(=N)C(=O)O1	CC1=CN[C]([NH])C(=O)O1	
InChI=1S/C5H6N2O2/c1-3-2-7-4(6)5(8)9-3/h2H,1H3,(H2,6,7)	InChI=1S/C5H6N2O2/c1-3-2-7-4(6)5(8)9-3/h2H,1H3,(H2,6,7)
