19
gdb 22781	2.59	1.10593	0.87496	2.2657	75.92	-0.2391	-0.0041	0.2349	1349.8892	0.158158	-456.273137	-456.263473	-456.262529	-456.308098	35.266	
C	 0.4523699467	 1.4830663767	-0.1827244732	-0.378592
C	 0.1080729654	 0.0205632939	 0.0649159844	-0.051794
N	 0.8958219378	-0.9621000536	-0.7580692433	-0.356937
C	 1.3430200918	-1.7128353396	 0.463138172	-0.089355
C	 2.87013413	-1.8068389709	 0.5191780657	-0.049484
O	 3.3583811677	-2.386864007	-0.6722793981	-0.420353
C	 0.6596009304	-0.6598251242	 1.3061287651	 0.391603
N	 0.6324310139	-0.493367501	 2.5588247787	-0.242406
O	-0.1326061391	 0.6366553601	 2.9054914273	-0.392551
H	 1.5298850575	 1.6459280352	-0.0947472353	 0.121947
H	 0.1445721338	 1.7769981496	-1.1913456439	 0.117146
H	-0.0594672451	 2.1200741292	 0.543135978	 0.136713
H	-0.978594661	-0.1247391422	-0.0148391176	 0.096653
H	 0.3089760581	-1.5192123076	-1.3685446654	 0.226585
H	 0.9038492455	-2.7140599979	 0.5537079666	 0.094636
H	 3.2894176839	-0.8023260064	 0.6832129812	 0.086427
H	 3.1858286617	-2.4440158003	 1.3508675858	 0.115453
H	 3.0000333422	-1.8353603031	-1.3809426694	 0.284905
H	-0.0602645009	 0.6442322391	 3.8660042515	 0.309404
60.2034	88.2135	121.7538	165.5547	212.9348	267.509	275.2386	351.722	373.2903	408.8422	470.8942	513.493	567.0629	615.0558	711.7705	787.3512	831.7736	875.3335	949.7691	982.1695	1013.5422	1048.6083	1067.1837	1074.6615	1089.0445	1142.0106	1166.4455	1199.3375	1232.1345	1292.4867	1321.3886	1361.1088	1366.9594	1390.374	1403.5703	1410.7214	1428.3844	1486.5832	1493.1157	1502.4184	1796.4757	2986.7638	3003.449	3030.0296	3042.3724	3087.8783	3114.4533	3131.3359	3538.728	3754.0892	3817.5869
CC1NC(CO)C1=NO	C[C@H]1N[C@@H](CO)C1=NO	
InChI=1S/C5H10N2O2/c1-3-5(7-9)4(2-8)6-3/h3-4,6,8-9H,2H2,1H3	InChI=1S/C5H10N2O2/c1-3-5(7-9)4(2-8)6-3/h3-4,6,8-9H,2H2,1H3/t3-,4+/m1/s1
