16
gdb 12972	2.38496	2.29049	1.78787	1.1463	60.02	-0.23	0.0644	0.2945	829.7037	0.128744	-420.820429	-420.812585	-420.811641	-420.85201	29.926	
C	-0.0965192438	 1.5883642712	-0.0293125875	-0.42957
C	 0.1455595092	 0.0940744484	 0.0131736444	 0.093113
O	 1.3165521208	-0.3623536352	-0.7510801448	-0.32404
C	 1.7382692867	-1.1977048706	 0.3374664191	-0.033162
C	 2.162122421	-0.3102065718	 1.4622580095	 0.041564
O	 2.7855017264	 0.9170409177	 1.2435328907	-0.43189
C	 0.6824197548	-0.6017472633	 1.264958188	 0.236635
O	-0.1192039492	-1.2185389379	 2.2034388098	-0.451689
H	 0.7414123461	 2.1418101313	 0.3977998435	 0.136118
H	-0.2623790232	 1.9200741516	-1.0594004799	 0.128507
H	-0.9982720722	 1.8263581901	 0.5456784977	 0.123531
H	-0.7304061984	-0.4534715783	-0.3581378205	 0.095702
H	 2.0754438666	-2.2028685899	 0.1128779153	 0.11298
H	 2.5699688874	-0.8359458169	 2.3230878552	 0.111818
H	 2.7779945647	 1.0461027415	 0.2850882075	 0.295949
H	-0.126458557	-0.6776791079	 3.0007475023	 0.294432
171.0902	199.3601	206.6164	226.0091	278.1857	323.9426	360.7755	427.8404	450.8508	583.2724	626.0344	663.9225	751.1683	819.8083	846.0118	924.8748	952.9994	999.0981	1023.6573	1074.2694	1101.6988	1130.3248	1158.2813	1211.552	1230.5097	1278.1905	1295.1401	1340.7887	1380.9429	1397.0159	1410.2789	1483.166	1490.3964	1503.331	3025.3851	3041.0975	3102.8799	3143.1064	3144.6404	3183.6786	3751.4522	3798.592
CC1OC2C(O)C12O	C[C@H]1O[C@H]2[C@@H](O)[C@@]12O	
InChI=1S/C5H8O3/c1-2-5(7)3(6)4(5)8-2/h2-4,6-7H,1H3	InChI=1S/C5H8O3/c1-2-5(7)3(6)4(5)8-2/h2-4,6-7H,1H3/t2-,3-,4+,5+/m1/s1
