18
gdb 87078	4.23616	0.71466	0.67445	0.9644	98.91	-0.2296	-0.0192	0.2104	1702.9962	0.144662	-364.743113	-364.733083	-364.732139	-364.778076	36.647	
C	-0.0818462121	 1.5188973854	-0.0896164727	-0.402886
C	 0.0021505283	 0.0200089334	 0.0652292241	-0.020697
N	 1.3036751223	-0.6198226741	-0.1467218677	-0.360792
C	 0.6958709447	-0.6719761575	 1.2117694215	 0.067735
C	 1.4393764945	 0.0830958643	 2.2996085088	-0.458281
C	 0.1255599643	-1.924947155	 1.6282699551	 0.416761
C	-0.3310339555	-2.9866052917	 1.9951839356	-0.264035
C	-0.8505836258	-4.1772813295	 2.39603662	 0.294116
C	-1.3117183053	-5.2356560264	 2.7519343165	-0.574825
H	 0.8243158384	 2.0145466798	 0.2630053901	 0.130748
H	-0.2102596746	 1.7762968211	-1.1465301011	 0.127236
H	-0.9397985853	 1.9193046801	 0.4604452164	 0.123741
H	-0.8688558713	-0.5143642258	-0.3109164658	 0.095788
H	 1.1926861151	-1.5185051901	-0.6096655066	 0.240032
H	 1.9007525187	 0.9851266469	 1.8955860243	 0.132189
H	 0.7611970921	 0.3605479236	 3.1121126156	 0.127778
H	 2.2320155707	-0.5448450394	 2.7166538168	 0.134142
H	-1.7171609791	-6.1655010251	 3.064869469	 0.191248
74.4502	80.4603	160.4788	166.9011	197.1926	220.2112	269.8771	324.934	347.8479	460.5159	488.0045	494.0061	528.193	542.991	587.715	596.6057	612.4106	754.1094	812.5815	902.1821	973.9545	1027.9503	1058.3344	1087.2073	1096.7336	1111.9937	1160.8225	1242.6826	1304.9053	1337.9852	1402.4084	1417.525	1447.4035	1478.143	1487.1305	1494.0938	1508.1462	2177.8935	2347.9839	3039.5101	3049.1789	3099.643	3114.3109	3116.2195	3136.947	3147.7169	3505.2054	3505.7239
CC1NC1(C)C#CC#C	C[C@H]1N[C@]1(C)C#CC#C	
InChI=1S/C8H9N/c1-4-5-6-8(3)7(2)9-8/h1,7,9H,2-3H3	InChI=1S/C8H9N/c1-4-5-6-8(3)7(2)9-8/h1,7,9H,2-3H3/t7-,8-/m1/s1
