20
gdb 6703	5.84635	0.76175	0.70046	4.2875	76.99	-0.2465	0.0232	0.2697	1605.6189	0.176019	-345.193629	-345.183813	-345.182869	-345.228985	34.328	
C	-0.075241628	 1.5605529029	-0.0704143514	-0.395105
C	 0.0213614092	 0.0294079771	-0.011432788	 0.025307
C	 0.7308339669	-0.5208993833	-1.2555010778	-0.389734
C	 0.7356570227	-0.4597307957	 1.2562268012	-0.113782
N	 0.0160358061	-0.0948175661	 2.4749542675	-0.306352
C	 0.6571914689	-0.6150188939	 3.6756413406	-0.259461
C	-0.0553471516	-0.1880485297	 4.883404034	 0.255027
N	-0.6015958138	 0.1668809938	 5.8371096054	-0.298402
H	 0.9202307572	 2.020192897	-0.0358601882	 0.1129
H	-0.5548134026	 1.8819609444	-1.0003125804	 0.119791
H	-0.6695044887	 1.9708486966	 0.7524289487	 0.118042
H	-0.9976145984	-0.3770513813	 0.019090924	 0.090005
H	 1.758741441	-0.1449675275	-1.3229770984	 0.114375
H	 0.7757435744	-1.614993777	-1.2412065299	 0.113283
H	 0.2088600086	-0.2192842501	-2.168799225	 0.116312
H	 0.7983978284	-1.5554733473	 1.2295088599	 0.102154
H	 1.7798082918	-0.0881538328	 1.2531972592	 0.078283
H	-0.0528498487	 0.9144166478	 2.549171203	 0.231843
H	 0.6438684978	-1.7116823722	 3.6373983654	 0.155814
H	 1.7181621488	-0.3221371828	 3.7879127203	 0.129701
46.2219	86.797	95.7685	133.706	213.076	231.294	250.3682	302.4918	378.2305	395.1081	429.0836	436.7207	584.135	774.9427	823.0406	907.323	928.787	935.1992	968.1923	978.9957	1005.0155	1064.1725	1145.0027	1162.8311	1175.4109	1194.9765	1238.7758	1299.5027	1319.8312	1358.8143	1376.4434	1399.9483	1409.7433	1429.5286	1485.3346	1485.6461	1489.8711	1500.972	1506.1405	1511.7242	1518.0634	2368.258	2905.8144	2929.381	3023.3256	3024.5257	3030.3374	3036.6015	3045.0951	3089.7467	3095.3796	3099.8177	3105.2599	3532.636
CC(C)CNCC#N	CC(C)CNCC#N	
InChI=1S/C6H12N2/c1-6(2)5-8-4-3-7/h6,8H,4-5H2,1-2H3	InChI=1S/C6H12N2/c1-6(2)5-8-4-3-7/h6,8H,4-5H2,1-2H3
