15
gdb 129115	5.027	1.34746	1.07015	3.3047	74.7	-0.2122	-0.0026	0.2096	1051.3791	0.116336	-413.016225	-413.009167	-413.008223	-413.048092	26.771	
N	-0.1373264139	 1.2431041852	-0.0418101157	-0.537167
C	-0.0118724199	-0.0169821968	 0.0046195704	 0.384812
C	-1.2117451951	-0.9804359492	 0.0430931672	-0.244373
N	-0.5456493771	-2.263015246	 0.0092844498	 0.024576
N	-0.9858863536	-3.5419125604	 0.0098459394	-0.295238
C	 0.1441773304	-4.245215271	-0.0069073984	 0.023255
C	 1.3168250372	-3.4377146913	-0.0101612457	-0.394913
C	 0.7995721968	-2.1619154127	 0.0022058458	 0.487181
N	 1.1370922091	-0.8132485643	 0.0360540593	-0.467315
H	 0.7644521362	 1.7208035904	-0.0588974199	 0.213905
H	-1.7967587485	-0.8386158734	 0.9567928956	 0.159957
H	-1.8655438259	-0.8229591573	-0.8189083049	 0.161319
H	 0.0957226119	-5.3244761294	-0.0157541964	 0.113941
H	 2.3464562516	-3.7508011593	-0.01902998	 0.105181
H	 2.0633970707	-0.4536482445	-0.1147926863	 0.264879
65.7693	138.9881	248.1035	334.8537	346.6228	526.0402	540.9022	566.6903	647.435	695.3242	746.1038	765.7581	842.9656	847.8454	866.0372	876.9577	955.0425	1014.9021	1050.4444	1079.9169	1149.5929	1182.6004	1216.1421	1276.3924	1299.1539	1324.3743	1360.0062	1369.6502	1458.1289	1490.2834	1536.8069	1634.6868	1767.4068	3061.4417	3103.8987	3244.8141	3283.0245	3471.9152	3678.5446
N=C1CN2N=CC=C2N1	[NH][C]1Cn2nccc2N1	
InChI=1S/C5H6N4/c6-4-3-9-5(8-4)1-2-7-9/h1-2H,3H2,(H2,6,8)	InChI=1S/C5H6N4/c6-4-3-9-5(8-4)1-2-7-9/h1-2H,3H2,(H2,6,8)
