18
gdb 88781	3.46635	1.24195	1.08259	1.2325	71.29	-0.2368	0.0121	0.249	1136.5726	0.148813	-439.075069	-439.06702	-439.066076	-439.108396	30.374	
O	 0.1028800225	 1.4110385653	 0.2426447144	-0.432234
C	-0.0095688194	 0.0278141667	 0.132138513	 0.138199
C	-0.5795335509	-0.833664427	 1.232219658	-0.340588
C	-1.3271139005	-0.6759477435	-0.0838429285	-0.086308
C	-2.6423151269	 0.0644975838	-0.154769948	 0.065433
C	-3.8872194889	-0.7503394998	 0.3000895876	-0.192717
N	-4.5012602843	 0.0383635841	 1.3830176442	-0.253756
C	-3.7554151288	 1.0438173796	 1.5471199934	 0.118053
O	-2.6527723436	 1.2041755315	 0.7651906614	-0.248215
H	-0.7143200787	 1.7476650969	 0.6300513972	 0.294588
H	 0.8461121635	-0.3619444545	-0.4102139017	 0.107315
H	-0.1179742581	-1.7873667106	 1.4641208349	 0.114344
H	-0.985306702	-0.3101666142	 2.0917312195	 0.121067
H	-1.3137048139	-1.5275475079	-0.7605528473	 0.096716
H	-2.7799245509	 0.4851994853	-1.1566907723	 0.104352
H	-4.6096999005	-0.8957959472	-0.50827308	 0.121969
H	-3.608726748	-1.7386987996	 0.6810753859	 0.12391
H	-3.9027764806	 1.833365831	 2.2755126582	 0.147871
61.866	72.5218	175.9082	233.6361	285.071	407.866	435.0567	485.5651	515.3267	635.6565	714.9429	757.9623	795.2115	834.8664	879.5929	912.6803	952.4272	969.4646	978.4539	998.2152	1036.9926	1066.0989	1071.6392	1107.4749	1127.1684	1135.0361	1144.4855	1216.4533	1233.6663	1306.8547	1323.1075	1332.8757	1355.5607	1383.1994	1392.1795	1451.4875	1489.7162	1497.0833	1720.3565	3044.2201	3047.32	3088.3503	3129.889	3132.8464	3163.4097	3219.1477	3220.1944	3782.4296
OC1CC1C1CN=CO1	O[C@H]1C[C@H]1[C@H]1CN=CO1	
InChI=1S/C6H9NO2/c8-5-1-4(5)6-2-7-3-9-6/h3-6,8H,1-2H2	InChI=1S/C6H9NO2/c8-5-1-4(5)6-2-7-3-9-6/h3-6,8H,1-2H2/t4-,5+,6-/m1/s1
