25
gdb 123053	6.28294	0.50231	0.48269	0.9472	91.26	-0.2495	0.0884	0.3379	2357.5736	0.22831	-389.474585	-389.463946	-389.463002	-389.511635	37.969	
C	-0.0826041318	 1.3866501801	 0.0359826531	-0.22612
O	-0.1091031704	-0.0163269131	-0.0446311209	-0.230591
C	 0.6810714142	-0.5211619493	-1.0998033776	-0.049429
C	 0.5913115526	-2.0408060408	-1.0975347785	-0.195473
C	 1.4189713471	-2.6875560403	-2.213930947	-0.215515
C	 1.3303676623	-4.2078873878	-2.2238847819	 0.065219
C	-0.0085484141	-4.8932469032	-2.6290096378	-0.215474
C	 0.8153648446	-5.9701137695	-3.3849145321	-0.210469
C	 2.0254180333	-4.9977080727	-3.3692187922	-0.237491
H	 0.9364157121	 1.7688808609	 0.210433477	 0.100389
H	-0.4692004636	 1.8584808332	-0.8821308272	 0.100361
H	-0.7169629089	 1.6806017308	 0.8761037878	 0.12441
H	 0.3321759832	-0.1163303462	-2.0667544243	 0.080532
H	 1.7307145596	-0.1978552014	-0.9802835298	 0.080375
H	 0.9263340077	-2.4082406779	-0.1197674516	 0.103071
H	-0.4626312491	-2.3277163545	-1.1941419653	 0.108783
H	 1.0855777308	-2.3044379627	-3.1891396815	 0.087969
H	 2.4717422599	-2.3875750506	-2.1123385748	 0.091699
H	 1.6617866417	-4.6002305307	-1.2541904524	 0.067036
H	-0.6791124101	-5.2255309275	-1.8327448696	 0.094591
H	-0.5788075573	-4.2641636529	-3.321598024	 0.094883
H	 0.9963671548	-6.8516092775	-2.7629329264	 0.100359
H	 0.4443371772	-6.3046862823	-4.3565467834	 0.09394
H	 2.0736724667	-4.4008372912	-4.2864914402	 0.094894
H	 3.0177616976	-5.413101393	-3.1752380996	 0.092051
48.1091	65.0152	85.8241	109.4425	144.4671	161.7126	221.794	237.9897	289.4052	370.8199	437.4675	498.2868	637.8326	754.8526	770.2993	786.737	859.0263	897.417	933.5799	949.6314	969.2637	987.699	1002.3231	1027.7149	1058.754	1102.6179	1123.9543	1165.0286	1174.3752	1190.7388	1201.8211	1222.4231	1225.6506	1253.7306	1256.1775	1261.7189	1269.7408	1285.1943	1300.3356	1309.305	1322.9037	1365.6338	1397.8939	1428.4751	1478.2868	1480.99	1483.7702	1485.1561	1487.9109	1498.6297	1506.8685	1512.3617	1532.567	2936.5829	2961.5119	2964.8341	2998.2615	3004.6153	3018.6396	3031.1445	3035.5295	3041.0287	3046.239	3056.633	3076.1244	3093.1796	3097.8851	3109.7689	3114.6407
COCCCC1CCC1	COCCCC1CCC1	
InChI=1S/C8H16O/c1-9-7-3-6-8-4-2-5-8/h8H,2-7H2,1H3	InChI=1S/C8H16O/c1-9-7-3-6-8-4-2-5-8/h8H,2-7H2,1H3
