21
gdb 87566	2.46319	1.4407	1.24347	1.6749	82.49	-0.2465	0.0865	0.3331	1147.3368	0.181121	-387.041377	-387.03245	-387.031506	-387.07465	34.447	
C	 0.0214205433	 1.589479961	 0.0163384282	-0.404483
C	 0.0271014529	 0.0770888015	 0.0391334126	-0.050163
C	 1.3020866708	-0.7013661533	-0.2125138112	-0.370384
C	 0.6804786486	-0.6812753003	 1.1551051906	 0.353976
C	 1.3108852477	-0.128997025	 2.4178808218	-0.077494
O	 0.2566103605	 0.0216409662	 3.3873411654	-0.250456
C	 0.8277124637	-1.2777033257	 3.1990636143	 0.026137
C	 0.1614034556	-1.9144925238	 1.9582762623	-0.110455
C	-1.3365298945	-2.1707917776	 2.0288324894	-0.406483
H	 0.9590634438	 1.9941849232	 0.4112378458	 0.111601
H	-0.0993786487	 1.9705520969	-1.003702229	 0.114877
H	-0.7939562446	 1.9913793094	 0.6269892193	 0.127053
H	-0.8771661748	-0.3824325126	-0.3546843105	 0.083588
H	 1.2507182341	-1.6203105397	-0.7886207368	 0.108835
H	 2.2178277179	-0.1355253582	-0.3620071558	 0.108301
H	 2.1910933944	 0.4914533046	 2.5419305916	 0.101505
H	 1.2479191112	-1.7661566067	 4.0710897619	 0.099246
H	 0.7057823953	-2.816340094	 1.65580395	 0.076565
H	-1.8533478985	-1.2828704666	 2.402338921	 0.134297
H	-1.7448933761	-2.4168219081	 1.0425848024	 0.111908
H	-1.5615951228	-3.0090637212	 2.697310437	 0.112029
102.9452	135.1178	175.5374	201.0951	221.9434	246.126	291.5919	394.2767	430.6739	491.9558	563.7877	645.8092	739.7319	804.7525	843.9239	854.412	858.7719	869.4361	897.7496	939.3602	973.9296	999.6507	1042.9624	1051.8131	1060.4026	1085.5085	1105.7465	1128.0296	1138.8765	1183.0954	1201.3182	1218.0456	1229.8795	1259.0807	1340.9405	1356.4197	1375.7308	1406.0114	1412.4525	1432.4928	1489.5228	1491.2893	1492.7173	1501.1821	1507.511	3029.2477	3031.5292	3044.9867	3091.6825	3092.5845	3097.4245	3113.1142	3120.623	3129.3043	3173.646	3188.7878	3196.5282
CC1CC11C2OC2C1C	C[C@H]1C[C@]21[C@H]1O[C@H]1[C@H]2C	
InChI=1S/C8H12O/c1-4-3-8(4)5(2)6-7(8)9-6/h4-7H,3H2,1-2H3	InChI=1S/C8H12O/c1-4-3-8(4)5(2)6-7(8)9-6/h4-7H,3H2,1-2H3/t4-,5+,6-,7-,8+/m0/s1
