22
gdb 84497	2.93754	1.35125	1.09419	1.4347	88.65	-0.2193	0.0166	0.2359	1204.7265	0.195036	-367.203994	-367.19517	-367.194225	-367.237096	35.029	
C	-0.0771792483	 1.6122693696	-0.0537426075	-0.406618
C	 0.0546917173	 0.0858638679	-0.0143402499	-0.0301
C	 0.8347715201	-0.5072733629	-1.1710912591	-0.078858
C	 1.5823189655	-1.5428222476	-0.7922267018	-0.156567
C	 1.4553968103	-1.788327055	 0.6687857014	 0.338537
C	 1.2625378668	-3.1718563365	 1.1929017062	-0.29489
N	 2.5109807841	-2.442720759	 1.4601793713	-0.364912
C	 0.765531347	-0.5319702385	 1.2395213437	-0.094126
C	 1.7971614928	 0.3956684174	 1.8932466933	-0.385977
H	 0.8974271771	 2.1082020426	-0.055410007	 0.121015
H	-0.6082886852	 1.9220146621	-0.9603943458	 0.109054
H	-0.6456970497	 1.9859718214	 0.8041972848	 0.113795
H	-0.966706819	-0.3234966983	-0.0585135211	 0.081838
H	 0.7325038899	-0.1429149599	-2.187950332	 0.091098
H	 2.1880466247	-2.169863311	-1.439075606	 0.089303
H	 0.6344191379	-3.3360244195	 2.0652975217	 0.116438
H	 1.2747725263	-3.9967247843	 0.4838097375	 0.106494
H	 3.2551563549	-2.7759489132	 0.8516001668	 0.227433
H	 0.0226908439	-0.8097211336	 1.9943122287	 0.067655
H	 2.5490585442	 0.7273226836	 1.1691200727	 0.112107
H	 1.3237619382	 1.2831544511	 2.3226970621	 0.104842
H	 2.3204783312	-0.1402872964	 2.6879407099	 0.132439
61.6809	202.3746	231.1303	252.2843	258.9338	285.826	296.6964	342.7643	420.4829	458.6803	548.587	605.1045	701.9627	760.3069	775.2747	807.2422	852.7539	881.9719	926.5754	953.303	960.5975	978.0504	1000.6135	1024.3827	1059.9357	1068.7038	1088.0221	1113.8164	1128.5089	1146.3625	1170.5948	1244.268	1267.1903	1293.6121	1309.6169	1334.319	1356.9322	1359.854	1402.123	1411.1613	1416.5624	1487.359	1495.7108	1505.5825	1507.6309	1510.9785	1675.9168	2972.347	3032.8362	3040.2972	3048.1851	3095.028	3095.2125	3106.5072	3112.2051	3129.0885	3170.0728	3179.9831	3196.7964	3490.1883
CC1C=CC2(CN2)C1C	C[C@H]1C=C[C@]2(CN2)[C@H]1C	
InChI=1S/C8H13N/c1-6-3-4-8(5-9-8)7(6)2/h3-4,6-7,9H,5H2,1-2H3	InChI=1S/C8H13N/c1-6-3-4-8(5-9-8)7(6)2/h3-4,6-7,9H,5H2,1-2H3/t6-,7-,8-/m0/s1
