21
gdb 79573	2.09185	1.64227	1.47371	1.4666	82.37	-0.2394	0.0762	0.3156	1076.3602	0.181374	-387.048787	-387.039697	-387.038753	-387.081692	35.634	
C	-0.0634463035	 1.5333492588	-0.0913380747	-0.420606
C	 0.1164710043	 0.0314214334	-0.02315152	-0.079474
C	 1.4242714448	-0.696992292	-0.2672046213	-0.144172
C	 2.5976248478	 0.0029455656	 0.3755107348	-0.100753
C	 3.173416192	-0.8631740617	 1.466458715	-0.340265
C	 1.918768148	-0.0727896658	 1.7572050771	 0.292352
C	 1.8393408269	 0.9394744364	 2.8685738793	-0.508784
C	 0.73923803	-0.7645454454	 1.1032829331	 0.307614
O	 0.1111768908	-1.8857982433	 1.6342543906	-0.466516
H	 0.8169939602	 2.0654486216	 0.2756482641	 0.124609
H	-0.2350970783	 1.8522133004	-1.1257125766	 0.11509
H	-0.9257579063	 1.8607474663	 0.5009229546	 0.109307
H	-0.7196839469	-0.5262210992	-0.4450278161	 0.084323
H	 1.5009947922	-1.4999440773	-0.9921126997	 0.089597
H	 3.1386675105	 0.8496066929	-0.0321401575	 0.083975
H	 3.1339045779	-1.9454039696	 1.3782670961	 0.114516
H	 4.0748858017	-0.4855147453	 1.9416313467	 0.102347
H	 2.7961443117	 1.4533897522	 3.0082131289	 0.117548
H	 1.0755886934	 1.7002821126	 2.676128316	 0.116435
H	 1.5905815818	 0.4535904293	 3.8200854971	 0.119659
H	-0.6653243088	-1.5941410199	 2.1233865826	 0.283197
160.9694	180.6026	187.2409	199.1387	223.8328	253.2064	276.3773	320.447	384.3292	444.0721	533.1939	601.5575	628.4065	658.2646	749.5696	786.5012	851.1417	887.4486	917.0044	962.6355	967.6146	987.2286	1003.5669	1042.5509	1070.005	1094.0122	1100.5635	1114.6374	1119.0024	1133.2128	1189.5302	1213.646	1266.0208	1294.7029	1317.5027	1339.6605	1377.9001	1409.6655	1419.0963	1458.1041	1488.2642	1494.6219	1495.2636	1502.0925	1506.9948	3023.6814	3028.7823	3081.0374	3082.2919	3098.9655	3109.6434	3111.5019	3127.7817	3168.714	3174.4174	3195.5495	3800.3015
CC1C2C3CC3(C)C12O	C[C@H]1[C@H]2[C@@H]3C[C@]3(C)[C@@]12O	
InChI=1S/C8H12O/c1-4-6-5-3-7(5,2)8(4,6)9/h4-6,9H,3H2,1-2H3	InChI=1S/C8H12O/c1-4-6-5-3-7(5,2)8(4,6)9/h4-6,9H,3H2,1-2H3/t4-,5-,6-,7-,8+/m0/s1
