20
gdb 55653	2.53041	1.09428	0.92074	1.6938	75.76	-0.2474	-0.0187	0.2287	1337.0868	0.167177	-440.340582	-440.32966	-440.328716	-440.377825	38.656	
C	 0.1962569856	 1.7119816642	 0.1836978753	-0.432406
C	 0.1127703698	 0.1721250101	 0.0833725401	 0.155265
C	 0.9271423741	-0.4732214313	 1.2273182621	-0.432752
C	-1.3406478728	-0.3273399831	 0.0520619939	-0.339432
C	-2.2077968272	 0.0486997356	 1.2535653554	 0.400632
N	-3.533382181	-0.2236287676	 1.0763199399	-0.517228
O	-1.7908106287	 0.5400190123	 2.2879093005	-0.359031
C	 0.7954621819	-0.2221291218	-1.2198884472	 0.156454
O	 0.2851622617	-0.8136399759	-2.1368433645	-0.268292
H	 1.2346606129	 2.0511953884	 0.1033892205	 0.113258
H	-0.3775923916	 2.1938594204	-0.6153380114	 0.115936
H	-0.2021407759	 2.0376495242	 1.1457129094	 0.159869
H	 0.5095140825	-0.1679965904	 2.1873670342	 0.163674
H	 0.8989021927	-1.5666148783	 1.1651186875	 0.11485
H	 1.9761036629	-0.1605646683	 1.1825145925	 0.111316
H	-1.8267911605	 0.031111409	-0.8623000386	 0.125653
H	-1.3446489994	-1.4211064319	-0.0346015993	 0.1325
H	-3.8871579814	-0.6675364879	 0.2472945762	 0.262063
H	-4.1602039653	-0.061165873	 1.8470596079	 0.261301
H	 1.8644833397	 0.0942659453	-1.2683546546	 0.07637
14.9974	73.5482	127.0156	156.1145	160.727	222.1045	246.5217	253.3702	315.2847	323.8282	352.8598	384.4418	463.0196	506.1515	575.23	645.6874	660.8601	766.8077	891.0593	894.0977	913.615	949.3686	963.7252	1010.7901	1060.2142	1089.5914	1138.5251	1213.3838	1255.6524	1286.5446	1305.6495	1387.1184	1399.0659	1405.9349	1426.2367	1454.5366	1480.6818	1499.583	1504.6397	1520.0545	1617.5445	1782.7887	1826.122	2853.3853	3030.885	3033.7802	3038.5811	3073.2204	3093.495	3096.7846	3143.1528	3149.3383	3603.7451	3740.6539
CC(C)(CC(N)=O)C=O	CC(C)(CC(=O)N)C=O	
InChI=1S/C6H11NO2/c1-6(2,4-8)3-5(7)9/h4H,3H2,1-2H3,(H2,7,9)	InChI=1S/C6H11NO2/c1-6(2,4-8)3-5(7)9/h4H,3H2,1-2H3,(H2,7,9)
