19
gdb 103658	3.43987	1.00592	0.9885	3.4388	73.	-0.2452	0.0088	0.254	1275.9932	0.158249	-460.160453	-460.151207	-460.150262	-460.194557	35.166	
O	-0.022425893	 1.3877969999	-0.0992391871	-0.436986
C	 0.0051048177	-0.0255598561	 0.0872842654	-0.13579
C	-1.4495438285	-0.4976463386	 0.0561010993	 0.371161
O	-2.0319613825	-0.063444726	-1.1753622281	-0.483434
C	-1.5949664442	-2.029581587	 0.1541893221	-0.300537
C	-2.7901980586	-2.3051180849	 1.1048694583	 0.100418
O	-2.5785641727	-3.3831132394	 2.0097083778	-0.434835
C	-3.0029056877	-0.9697550094	 1.7802749908	-0.132893
C	-2.2652313912	-0.0030480637	 1.2414043176	-0.107574
H	 0.8639968665	 1.6923229382	-0.3105414868	 0.296365
H	 0.5591737903	-0.5208668004	-0.7230136929	 0.098715
H	 0.4720276979	-0.2917095718	 1.0471531258	 0.089142
H	-1.7556285205	 0.8563661899	-1.2808834021	 0.282405
H	-1.7215989895	-2.4624235487	-0.839511592	 0.120026
H	-0.6973842973	-2.472694649	 0.600816673	 0.091093
H	-3.6829953764	-2.6030593611	 0.5428769399	 0.103423
H	-1.8707700032	-3.1195734243	 2.6086576211	 0.271867
H	-3.7051620078	-0.8585488809	 2.59990342	 0.100598
H	-2.2578226093	 1.0403070834	 1.5361027578	 0.106834
44.9179	127.1785	186.1309	229.4104	241.1432	317.2279	342.8353	359.6595	375.2637	418.3775	457.8357	486.4799	579.3953	675.8341	708.2526	809.6445	826.3693	863.6962	905.2496	959.4569	992.7354	1007.9396	1051.9826	1064.1859	1093.4698	1117.0701	1138.458	1147.1704	1208.5749	1239.948	1264.0266	1284.7637	1297.1242	1322.9595	1364.1964	1406.4094	1428.1446	1442.4824	1471.9325	1504.5622	1684.536	2984.1223	3028.3244	3040.95	3046.1399	3121.1975	3181.1889	3208.4731	3767.8202	3792.6689	3845.3775
OCC1(O)CC(O)C=C1	OC[C@@]1(O)C[C@@H](O)C=C1	
InChI=1S/C6H10O3/c7-4-6(9)2-1-5(8)3-6/h1-2,5,7-9H,3-4H2	InChI=1S/C6H10O3/c7-4-6(9)2-1-5(8)3-6/h1-2,5,7-9H,3-4H2/t5-,6-/m0/s1
