23
gdb 116007	2.22116	1.16444	0.7975	1.4968	88.52	-0.2221	0.0373	0.2594	1494.1879	0.205671	-388.306288	-388.296291	-388.295347	-388.34139	36.976	
C	 0.6646015368	-0.3263088628	-1.419806527	-0.383879
C	 0.0281921599	 0.0356714022	-0.0740689638	-0.187136
C	-1.4484107687	-0.3800740876	 0.0360884481	-0.062574
C	-1.6792450208	-1.914258796	-0.0374653889	-0.215864
C	-2.8641597364	-2.2112231388	 0.9134476021	-0.263842
C	-2.8866139307	-1.0014821493	 1.8135518355	-0.164022
C	-2.12789852	-0.0099417218	 1.3468131547	 0.313251
C	-1.9821316428	 1.3520632905	 1.9467665881	-0.183312
O	-2.8465693366	 1.484425621	 3.0619339834	-0.415757
H	 1.705795501	 0.0075722738	-1.4682904589	 0.109683
H	 0.654927836	-1.4075236268	-1.5910954302	 0.11993
H	 0.1245157781	 0.1445588487	-2.2491806274	 0.112403
H	 0.5920412737	-0.4360171461	 0.7421375753	 0.094487
H	 0.11457913	 1.119132563	 0.0782552965	 0.091057
H	-1.9875937349	 0.1180350957	-0.7878911129	 0.068198
H	-1.8510798282	-2.269588038	-1.0566839246	 0.094053
H	-0.7813637428	-2.4228046277	 0.3338179198	 0.097983
H	-3.8133369034	-2.3039557462	 0.3656177327	 0.101637
H	-2.7371635669	-3.1533477088	 1.4594109812	 0.098127
H	-3.4942291674	-0.9330517812	 2.7071398192	 0.102969
H	-0.9310021232	 1.5185366863	 2.2398288852	 0.095524
H	-2.2050565151	 2.1118544518	 1.1744861959	 0.089857
H	-2.6669255574	 2.3320042284	 3.4779892059	 0.287229
79.7876	99.0907	119.6284	155.4555	213.6364	229.4998	242.0453	247.8235	326.3404	366.7706	472.3793	515.5812	626.5027	683.1051	771.2221	812.8029	845.8791	867.579	929.84	935.059	963.1428	1002.1105	1025.1808	1035.8048	1066.4982	1079.7558	1111.6134	1134.0609	1168.3518	1200.0786	1225.5232	1238.5704	1253.9563	1277.8312	1285.8468	1314.9914	1322.3109	1345.6564	1356.3114	1379.006	1411.2781	1466.8452	1482.7207	1488.5948	1499.0648	1503.6465	1507.5418	1507.9214	1724.9781	2929.0221	2951.7718	2954.4172	3000.206	3012.4185	3030.8955	3032.4325	3046.6343	3051.363	3094.1351	3097.0237	3105.0867	3216.3176	3837.9734
CCC1CCC=C1CO	CC[C@H]1CCC=C1CO	
InChI=1S/C8H14O/c1-2-7-4-3-5-8(7)6-9/h5,7,9H,2-4,6H2,1H3	InChI=1S/C8H14O/c1-2-7-4-3-5-8(7)6-9/h5,7,9H,2-4,6H2,1H3/t7-/m0/s1
