18
gdb 87049	2.22676	1.42393	1.08633	4.1434	76.69	-0.2664	0.0163	0.2827	1176.8834	0.147617	-398.085269	-398.076261	-398.075316	-398.1194	32.92	
C	-0.1735742677	 1.5323910731	 0.4904266492	-0.408182
C	-0.1466148382	 0.0256565499	 0.5573800461	-0.050558
N	 0.7941732467	-0.6705908458	-0.3249669142	-0.349134
C	 0.998546074	-0.7452613482	 1.1433947887	 0.135644
C	 2.1567510243	-0.01262992	 1.6208207533	 0.294785
N	 3.0699566577	 0.5573326607	 2.0422614423	-0.344267
C	 0.8143993012	-2.0547984204	 1.8709210348	-0.083986
C	-0.0260023017	-2.1404129117	 3.0916793032	-0.22722
N	-0.4448299125	-2.8059252305	 1.8458267369	-0.327782
H	 0.8336720948	 1.935198339	 0.3671115346	 0.156035
H	-0.7805480149	 1.8576608236	-0.3602399632	 0.13125
H	-0.6091075098	 1.9530929783	 1.4022989275	 0.12834
H	-1.1254249724	-0.4328339076	 0.6965088912	 0.084334
H	 0.408751678	-1.559034157	-0.6403574829	 0.247344
H	 1.6924880751	-2.6941809043	 1.8091370414	 0.119997
H	 0.2551818032	-2.8082349688	 3.8999502679	 0.134959
H	-0.5511942222	-1.2406146804	 3.4004932066	 0.122822
H	-1.1902294657	-2.2765123498	 1.4010522866	 0.235618
54.0921	136.4763	153.1069	159.2266	190.4536	237.156	331.4087	375.0543	470.648	489.7774	563.9768	610.564	634.6344	795.7678	822.3664	884.0757	890.1616	940.0118	951.748	1011.6018	1023.383	1044.3991	1070.3393	1107.6857	1133.5599	1158.6609	1181.2011	1241.7929	1252.0753	1277.4283	1310.4278	1320.3083	1410.3464	1416.4347	1450.2461	1485.4762	1495.9496	1510.9567	2356.298	3044.31	3103.1313	3109.6744	3116.4384	3132.26	3140.9443	3205.9231	3489.1719	3505.3075
CC1NC1(C#N)C1CN1	C[C@H]1N[C@]1(C#N)[C@H]1CN1	
InChI=1S/C6H9N3/c1-4-6(3-7,9-4)5-2-8-5/h4-5,8-9H,2H2,1H3	InChI=1S/C6H9N3/c1-4-6(3-7,9-4)5-2-8-5/h4-5,8-9H,2H2,1H3/t4-,5-,6+/m1/s1
