19
gdb 71657	3.08182	1.8943	1.85946	1.399	76.25	-0.2448	0.0949	0.3397	869.344	0.161973	-385.875354	-385.868995	-385.868051	-385.905545	27.872	
C	 0.0360669841	 1.4824540246	-0.0507811188	-0.501649
C	-0.0394815942	-0.0230569973	-0.0007591222	 0.385378
C	-1.4193497483	-0.7263170334	-0.0350714376	-0.239654
C	-0.823002195	-2.1341943551	 0.0649336756	-0.094483
C	 0.0077282213	-2.1104484925	 1.3654350841	-0.087777
C	 1.3054462349	-1.998651809	 0.6045149453	-0.088219
C	 0.6724850396	-0.7545942645	 1.1876536681	-0.106935
C	 0.5533607584	-1.9669133189	-0.7392206214	 0.058019
O	 0.5750251757	-0.6165314796	-1.1693114116	-0.283776
H	 1.0773685514	 1.8176335251	-0.0612581499	 0.126555
H	-0.454400587	 1.863574626	-0.9510320371	 0.126374
H	-0.4595538391	 1.9183892019	 0.821861348	 0.118088
H	-2.0519928266	-0.4827669284	 0.8239156116	 0.092412
H	-1.9494032889	-0.5177727131	-0.968224913	 0.097166
H	-1.4451000897	-2.9988898598	-0.1543756962	 0.067838
H	-0.2124151224	-2.5760007604	 2.3172785316	 0.083405
H	 2.3033146219	-2.3543839657	 0.8259724428	 0.085895
H	 1.1281499605	-0.2232798001	 2.0120673515	 0.084904
H	 0.8084837233	-2.6493379398	-1.5465045107	 0.07646
205.9371	272.153	285.099	440.7358	545.8801	573.02	600.5711	678.7379	695.8434	779.5096	797.8508	806.4758	826.1454	836.5486	862.8452	892.468	905.6308	937.4677	967.8334	988.2579	1016.5543	1026.3866	1030.3381	1047.8827	1055.8236	1093.5498	1139.8227	1157.59	1189.3694	1206.8694	1217.4879	1243.5609	1273.4831	1280.7447	1311.5298	1327.4708	1372.7166	1416.2421	1475.8601	1483.7881	1496.9048	3041.9466	3054.2534	3111.8497	3114.7442	3116.9321	3142.5083	3151.9497	3189.5284	3197.9839	3213.3064
CC12CC3C4C(C14)C3O2	C[C@]12C[C@@H]3[C@H]4[C@H]([C@@H]14)[C@@H]3O2	
InChI=1S/C8H10O/c1-8-2-3-4-5(6(4)8)7(3)9-8/h3-7H,2H2,1H3	InChI=1S/C8H10O/c1-8-2-3-4-5(6(4)8)7(3)9-8/h3-7H,2H2,1H3/t3-,4+,5-,6+,7-,8+/m1/s1
