18
gdb 78181	2.04509	1.75219	1.22506	3.3382	72.44	-0.2309	-0.0241	0.2067	1071.1547	0.146947	-439.072219	-439.063696	-439.062751	-439.105507	32.092	
C	-0.1265227927	 1.6340880239	 0.0970480705	-0.326162
N	 0.0396944532	 0.1987153751	-0.0914480412	-0.092391
C	 0.5668953311	-0.4181496591	-1.2768013605	-0.034128
C	 1.3158370308	-0.5122949281	 0.0275133047	-0.153388
C	 2.5855623976	 0.2769256268	-0.1300487405	 0.420618
O	 3.502210478	 0.2964766336	 0.6527100256	-0.324613
C	 2.5570030923	 1.0009944303	-1.4845788473	-0.380994
C	 1.3647585453	 0.4193570046	-2.2782895774	 0.08961
O	 1.7711223345	-0.4886639845	-3.2927536926	-0.432811
H	 0.5987028525	 2.2838262896	-0.4106686451	 0.109152
H	-1.1254892494	 1.9056199383	-0.2583722154	 0.133543
H	-0.080777146	 1.847478611	 1.1685002224	 0.140311
H	 0.0077380396	-1.2543191553	-1.68798874	 0.111207
H	 1.3268040497	-1.3758587133	 0.6850583171	 0.109961
H	 2.5025438106	 2.0845836184	-1.3321933531	 0.13097
H	 3.4979522028	 0.7958210749	-2.0035743675	 0.135142
H	 0.7369906108	 1.2141244233	-2.7076540852	 0.076444
H	 2.2205969894	 0.0108730805	-3.9814285644	 0.287529
71.5435	119.6394	153.874	240.5234	276.6722	315.8805	370.2223	390.259	455.5685	535.9862	578.3954	608.4073	696.358	732.9085	813.1688	854.9382	922.045	942.7987	983.1848	1024.6917	1073.3921	1089.3999	1102.5094	1157.0813	1168.2282	1185.6084	1193.6783	1231.6209	1254.7755	1282.5421	1308.4303	1349.0698	1394.2564	1417.7051	1441.244	1458.1153	1493.9928	1503.5921	1830.0363	2985.7549	3012.0161	3048.7312	3079.2826	3099.649	3114.1156	3150.1952	3166.7667	3823.4396
CN1C2C1C(=O)CC2O	CN1[C@@H]2[C@H]1C(=O)C[C@H]2O	
InChI=1S/C6H9NO2/c1-7-5-3(8)2-4(9)6(5)7/h3,5-6,8H,2H2,1H3	InChI=1S/C6H9NO2/c1-7-5-3(8)2-4(9)6(5)7/h3,5-6,8H,2H2,1H3/t3-,5+,6-,7?/m1/s1
