20
gdb 116701	4.10163	0.74763	0.70505	4.7756	82.31	-0.2382	0.012	0.2502	1671.7013	0.169622	-440.261981	-440.252369	-440.251425	-440.297743	34.544	
C	 0.0096176289	 1.3534027272	 0.0422741743	-0.249593
O	-0.1146456349	-0.0633359227	-0.0219726922	-0.195021
C	 0.5317717483	-0.6591621274	-1.0395970187	 0.127186
N	 0.486131232	-1.9084260422	-1.1875315423	-0.221649
C	 1.1994098341	-2.5032915142	-2.2996141934	 0.019254
C	 2.0309452489	-3.7259891767	-1.8049374443	-0.247534
C	 0.7865888707	-4.6240686963	-2.0753603231	 0.15689
O	-0.0327110577	-4.824087141	-0.9482010477	-0.44185
C	 0.2755051923	-3.5152585324	-3.0435568644	-0.247538
H	 1.054903002	 1.6585379556	 0.1716622841	 0.130098
H	-0.4001608686	 1.832714389	-0.8548354032	 0.130101
H	-0.565759701	 1.6719257905	 0.9119204933	 0.150213
H	 1.0823905702	 0.0243078794	-1.7036057656	 0.078949
H	 1.7235076939	-1.7574659625	-2.9154933436	 0.048596
H	 2.8556648149	-3.9467077364	-2.4887704667	 0.096419
H	 2.3992661874	-3.692934025	-0.7774211317	 0.103353
H	 0.9702867295	-5.6123880293	-2.5038719669	 0.074742
H	-0.1945927629	-3.9473655815	-0.5697359612	 0.287613
H	-0.7968675604	-3.3092397454	-3.0326270634	 0.103349
H	 0.6126150126	-3.6774666188	-4.0714457433	 0.09642
37.1173	77.7203	86.3402	148.4807	186.901	246.094	314.0173	380.3114	407.9726	435.1119	463.4909	553.4197	568.3768	764.3884	848.5207	863.9976	891.4949	906.8367	978.8192	983.9276	1007.1382	1040.6343	1068.8324	1085.6588	1148.5783	1155.7769	1173.8761	1176.9456	1212.3469	1246.7454	1266.1533	1277.1437	1277.4483	1341.9141	1360.5605	1421.08	1452.2716	1462.673	1483.6136	1486.0864	1494.5447	1500.14	1772.7573	2980.9521	3001.4183	3019.3516	3056.1275	3060.6554	3081.0992	3081.9401	3124.089	3124.584	3148.4109	3720.6635
COC=NC1CC(O)C1	COC=N[C@H]1C[C@@H](O)C1	
InChI=1S/C6H11NO2/c1-9-4-7-5-2-6(8)3-5/h4-6,8H,2-3H2,1H3	InChI=1S/C6H11NO2/c1-9-4-7-5-2-6(8)3-5/h4-6,8H,2-3H2,1H3/t5-,6+
