15
gdb 22991	2.73623	1.25276	0.916	4.6588	66.04	-0.242	-0.0213	0.2207	1209.0873	0.11094	-491.037396	-491.028536	-491.027592	-491.071771	31.719	
N	 0.0212089442	 1.2601986532	 0.2990350475	-0.523083
C	 0.0624060416	-0.0676457219	-0.0114344471	 0.357675
O	 1.054569469	-0.6714628788	-0.3470966835	-0.335457
C	-1.3293953869	-0.7265670348	 0.0185807978	-0.05346
O	-1.295045554	-2.1498342707	 0.2456455685	-0.268933
C	-2.1115440224	-2.0535854028	 1.4393403019	-0.156363
C	-2.1626815143	-0.557923083	 1.2653781475	 0.340518
N	-2.5952231787	 0.4747843015	 1.8487784291	-0.234764
O	-3.2863143441	 0.1549372906	 3.0241585393	-0.383043
H	 0.9015054236	 1.7479449141	 0.3565900138	 0.263508
H	-0.7675897254	 1.6369560456	 0.8038495891	 0.272547
H	-1.8454536672	-0.475563965	-0.9193725828	 0.130976
H	-3.0711729987	-2.5749991086	 1.3390910893	 0.135095
H	-1.5938044579	-2.4109221225	 2.337676049	 0.140962
H	-3.565403679	 1.018804733	 3.3475650307	 0.313824
44.2078	101.2194	125.4053	194.9628	245.3541	320.2106	375.1169	396.4424	418.2806	481.5249	488.774	588.5437	634.2516	682.1629	762.8291	856.7091	928.1626	986.9589	1014.0132	1028.4547	1060.5697	1112.2654	1130.8793	1174.1641	1248.1858	1283.3656	1316.3532	1345.703	1415.6324	1495.3818	1627.9679	1812.3598	1826.7529	3006.7553	3025.5458	3068.5186	3562.7408	3696.937	3813.3208
NC(=O)C1OCC1=NO	NC(=O)[C@H]1OCC1=NO	
InChI=1S/C4H6N2O3/c5-4(7)3-2(6-8)1-9-3/h3,8H,1H2,(H2,5,7)	InChI=1S/C4H6N2O3/c5-4(7)3-2(6-8)1-9-3/h3,8H,1H2,(H2,5,7)/t3-/m0/s1
