19
gdb 78628	5.59709	0.93496	0.91418	3.31	81.33	-0.2407	-0.0217	0.2191	1321.4121	0.158684	-385.823899	-385.815977	-385.815033	-385.856526	30.53	
C	-0.1910270839	 1.6186311556	-0.0840521703	-0.421442
C	-0.0564697478	 0.104771769	-0.0333907414	-0.005121
C	 1.1870003482	-0.5756762099	-0.6498555986	-0.048414
C	 2.0918457139	-0.2506060884	 0.5891376153	-0.064436
C	 2.5699392501	-1.7254248695	 0.7026186917	-0.114496
C	 2.9685344745	-2.230851227	 2.054677225	 0.149
O	 3.9450590746	-2.9052765729	 2.2736605858	-0.260866
C	 1.070924356	-1.8086466425	 0.3062579382	-0.061665
C	 0.6611546998	-0.5602208767	 1.1636577417	-0.059391
H	 0.746045527	 2.119001994	 0.1812414765	 0.115637
H	-0.475550586	 1.9543845033	-1.0872748963	 0.118532
H	-0.9632115891	 1.9674661495	 0.6104315195	 0.118322
H	-1.002956476	-0.3809778785	-0.3038411698	 0.066724
H	 1.5209699069	-0.6069538186	-1.6886932675	 0.074347
H	 2.6860392897	 0.6483293331	 0.7522570684	 0.08463
H	 3.2886308706	-2.0585715061	-0.0522375618	 0.082458
H	 2.2843347944	-1.9377888272	 2.8848210177	 0.066033
H	 0.4682283915	-2.7020190102	 0.1369540439	 0.081442
H	 0.3679275558	-0.560531087	 2.2141541319	 0.078707
75.7083	141.8428	198.9144	225.3288	275.6808	320.3145	421.4005	484.9315	541.1067	741.7737	751.8126	838.3061	845.6018	847.5397	862.2771	868.0907	939.1178	969.8119	996.9238	1031.2735	1044.1015	1063.9549	1098.8827	1103.472	1122.5773	1129.9595	1147.9134	1156.6008	1181.1354	1185.3611	1219.1745	1245.3302	1264.0152	1305.7195	1331.2328	1399.9157	1414.5357	1443.6731	1494.618	1499.9195	1821.112	2860.0567	3022.8654	3030.159	3072.7202	3092.9912	3094.1371	3100.5076	3101.4528	3108.8616	3119.7093
CC1C2C3C(C=O)C2C13	C[C@H]1[C@H]2[C@@H]3[C@@H](C=O)[C@H]2[C@H]13	
InChI=1S/C8H10O/c1-3-5-7-4(2-9)8(5)6(3)7/h2-8H,1H3	InChI=1S/C8H10O/c1-3-5-7-4(2-9)8(5)6(3)7/h2-8H,1H3/t3-,4-,5-,6+,7-,8+/m1/s1
