18
gdb 76255	2.50956	1.43268	0.99982	3.5267	77.21	-0.2379	-0.0186	0.2193	1189.6258	0.147261	-435.264543	-435.255098	-435.254153	-435.299049	33.778	
C	-0.4087244652	 1.3586008036	 0.1334420627	-0.390559
C	-0.0407634288	-0.1005513922	-0.0713968596	-0.006705
C	 0.8546668697	-0.427054161	-1.3241360191	 0.030379
O	 1.1453606549	 0.6554665378	-2.1681387657	-0.427248
C	 1.9477458397	-0.8031768207	-0.3287652451	 0.354609
N	 3.1628391797	-1.0987436515	-0.4843235631	-0.560001
N	 1.0857373602	-0.5953522815	 0.7557847967	-0.080189
C	 1.2722922393	-0.7178837177	 2.1070816213	 0.063783
N	 2.3887847263	-1.102700432	 2.5908271138	-0.451432
H	 0.463833318	 2.0013940149	 0.0008945446	 0.135932
H	-1.1639564579	 1.657066772	-0.5994738597	 0.136137
H	-0.8238729671	 1.5208951374	 1.1332948758	 0.115306
H	-0.9221829994	-0.7460429707	 0.0081242192	 0.091658
H	 0.4750136288	-1.2831301448	-1.896355754	 0.09867
H	 2.1015802025	 0.6620643221	-2.2944036495	 0.305093
H	 3.6164324212	-1.2389103903	 0.4204914801	 0.253265
H	 0.376505017	-0.4569685707	 2.6836972466	 0.101041
H	 2.3417172512	-1.1443699346	 3.6064012749	 0.230262
68.0843	93.6501	165.346	191.8534	201.9832	218.8525	238.847	260.2391	374.926	455.4139	483.8189	588.9248	649.5635	751.2446	803.8471	827.6932	837.1681	912.3431	948.1072	1010.8611	1038.8965	1052.1245	1107.2098	1138.9322	1162.8161	1204.5586	1233.7917	1271.9089	1300.6309	1364.4796	1370.1682	1378.6773	1397.1797	1414.698	1447.7071	1487.604	1489.5745	1693.5843	1796.9693	3023.7895	3044.1637	3046.0507	3051.9952	3113.1887	3138.94	3478.1601	3513.576	3795.8136
CC1C(O)C(=N)N1C=N	C[C@H]1[C@@H](O)[C]([NH])N1[CH][NH]	
InChI=1S/C5H9N3O/c1-3-4(9)5(7)8(3)2-6/h2-4,6-7,9H,1H3	InChI=1S/C5H9N3O/c1-3-4(9)5(7)8(3)2-6/h2-4,6-7,9H,1H3/t3-,4+/m0/s1
