16
gdb 63293	1.97625	1.68975	1.12998	4.9215	69.59	-0.2929	-0.016	0.2768	1105.6366	0.122437	-437.935702	-437.926883	-437.925939	-437.969224	32.081	
C	 0.1916405244	 1.4215601058	-0.2429738574	-0.434949
C	-0.0540896312	-0.0507820513	 0.0215612838	 0.402869
C	-1.5138616691	-0.4553878198	-0.0506234171	-0.436979
O	 0.74678351	-0.874461657	-0.9244062352	-0.267781
C	 1.5177062337	-1.4050555809	 0.058252781	 0.468308
O	 2.4264324125	-2.1600849597	-0.0281420044	-0.306452
C	 0.7508965654	-0.6908277689	 1.2012487129	-0.418659
C	 1.5097923702	 0.1649657961	 2.088552421	 0.30426
N	 2.1074877217	 0.8643714746	 2.7880558834	-0.322189
H	 1.2566588763	 1.6611532948	-0.203069127	 0.150579
H	-0.1881108899	 1.6860515163	-1.2336440339	 0.139942
H	-0.3256804846	 2.0332806252	 0.5018222339	 0.142568
H	-1.9277600539	-0.1988886395	-1.0298063975	 0.145142
H	-1.6322244177	-1.5318063759	 0.1006668182	 0.134965
H	-2.0909398411	 0.0723310732	 0.7147638994	 0.139503
H	 0.1613672036	-1.405600633	 1.781954269	 0.158873
81.2849	128.5194	159.1422	205.2636	241.4177	298.8758	331.5787	348.7324	424.4701	443.669	499.2197	582.3837	617.7259	700.0511	814.04	843.7963	901.8791	949.4743	985.9005	1012.9269	1067.8054	1095.2084	1132.621	1231.4521	1245.7085	1274.1024	1338.2578	1411.24	1424.3438	1472.3562	1481.7373	1494.0633	1503.3383	1950.3789	2361.9511	3044.3404	3051.4551	3087.111	3120.1867	3124.1025	3127.3098	3134.2716
CC1(C)OC(=O)C1C#N	CC1(C)OC(=O)[C@H]1C#N	
InChI=1S/C6H7NO2/c1-6(2)4(3-7)5(8)9-6/h4H,1-2H3	InChI=1S/C6H7NO2/c1-6(2)4(3-7)5(8)9-6/h4H,1-2H3/t4-/m1/s1
