23
gdb 63374	2.75972	1.22585	1.15639	1.2129	87.49	-0.2438	0.0156	0.2595	1244.1668	0.203693	-388.315055	-388.305077	-388.304133	-388.348833	39.269	
C	 0.4900867469	 1.3468604474	-0.1086706816	-0.422413
C	-0.1788115281	-0.0362942683	 0.0437338237	 0.267527
C	-1.7017859741	 0.128915584	 0.1646662363	-0.437561
C	 0.2177342552	-0.9910417749	-1.1205177564	-0.274958
C	 1.4049517644	-1.8410049432	-0.6149240843	 0.352126
C	 1.4117059951	-3.276507723	-1.1429120016	-0.43559
O	 2.6069595606	-1.1690815623	-1.0480103347	-0.468444
C	 1.2514098393	-1.7355168474	 0.8918644707	-0.141524
C	 0.4136591331	-0.7625745013	 1.2384725942	-0.091271
H	 1.563838638	 1.2323508466	-0.2755812453	 0.134166
H	 0.0625855867	 1.8906232329	-0.9589189566	 0.10667
H	 0.3404154896	 1.9598539451	 0.7874075605	 0.102515
H	-2.1173071025	 0.5852802158	-0.7408194355	 0.112162
H	-2.1960693249	-0.8366856843	 0.3143473979	 0.110322
H	-1.9629316321	 0.7755452072	 1.0101610127	 0.108126
H	-0.6233093169	-1.652082891	-1.3523025173	 0.090215
H	 0.4899376066	-0.4605515437	-2.0365930147	 0.105251
H	 1.4841199718	-3.2791751521	-2.2347233784	 0.122366
H	 2.2710319619	-3.8309229794	-0.746464116	 0.100077
H	 0.5038397875	-3.812235627	-0.8481068004	 0.115255
H	 3.3496748307	-1.5657589281	-0.5797812342	 0.270544
H	 1.8167614667	-2.3627113582	 1.5753171392	 0.084271
H	 0.1850765846	-0.4618760849	 2.2571301119	 0.090165
85.2869	160.8118	234.8318	238.9546	243.7225	267.601	283.9163	299.3165	314.1339	362.2989	389.3099	422.8174	447.396	568.3716	577.6433	667.8616	798.4057	801.8979	828.0487	876.6023	909.1803	930.3332	948.1124	954.4011	976.4896	983.0002	1026.6349	1072.3336	1097.4205	1146.1666	1155.7871	1194.7953	1245.061	1256.9653	1265.1743	1311.4748	1359.4997	1385.0834	1394.4049	1403.3294	1419.7877	1474.2743	1488.0237	1488.2582	1490.5113	1491.1873	1502.3412	1511.3846	1685.8633	3021.1004	3024.421	3025.8389	3051.6906	3084.9773	3090.5467	3091.2562	3095.9811	3105.302	3113.1819	3123.6389	3158.2819	3184.8735	3803.2098
CC1(C)CC(C)(O)C=C1	CC1(C)C[C@@](C)(O)C=C1	
InChI=1S/C8H14O/c1-7(2)4-5-8(3,9)6-7/h4-5,9H,6H2,1-3H3	InChI=1S/C8H14O/c1-7(2)4-5-8(3,9)6-7/h4-5,9H,6H2,1-3H3/t8-/m0/s1
