23
gdb 88467	2.69637	1.18209	1.13938	1.6718	85.36	-0.2564	0.0818	0.3382	1260.2594	0.204612	-388.268579	-388.258967	-388.258023	-388.302745	36.73	
C	 1.8530813109	-0.1854729833	-0.911974854	-0.432406
C	 0.5334598799	 0.054627793	-0.2228680608	 0.080905
O	-0.0282840748	-1.0117870892	 0.5581137061	-0.270168
C	 0.3326219646	 0.2005401405	 1.2290976014	-0.014636
C	 1.3908818722	 0.1492145505	 2.3111302817	 0.32116
C	 2.0533946031	 1.5228183131	 2.4497730522	-0.447752
C	 0.8655717276	-0.3946242382	 3.6832959545	-0.256145
C	 2.153703592	-1.2475240338	 3.8154977898	-0.232002
C	 2.4131296901	-1.0322019938	 2.3022971299	-0.253225
H	 2.5961564177	-0.6250677531	-0.2468513473	 0.136257
H	 1.7143785757	-0.8594668607	-1.7643261378	 0.127297
H	 2.2484707854	 0.7599897219	-1.2997352608	 0.119876
H	-0.2076469336	 0.5451374662	-0.8593310955	 0.08418
H	-0.5345257852	 0.7971421429	 1.5316383775	 0.081418
H	 1.3065848887	 2.3050397822	 2.6308348242	 0.113018
H	 2.7569506645	 1.5384508575	 3.2885382584	 0.116014
H	 2.6064334089	 1.7901491505	 1.5427698244	 0.115536
H	 0.662956673	 0.3471954088	 4.461142	 0.090832
H	-0.0237991221	-1.0171508236	 3.5510131122	 0.110906
H	 2.9090473923	-0.7669677395	 4.4428151378	 0.100232
H	 2.0327704514	-2.2782175299	 4.155429545	 0.099407
H	 2.0370810509	-1.8629780052	 1.702432227	 0.120638
H	 3.4364576868	-0.7978355267	 1.994910624	 0.088659
71.3587	126.7124	161.4362	183.0782	225.4119	241.1518	262.8357	328.5382	352.2969	394.8683	486.2134	526.6008	659.3526	714.6832	780.0535	803.4368	845.8388	875.9477	914.5211	926.8387	936.9289	948.7772	990.4525	999.0373	1022.2705	1069.6957	1096.8578	1160.7742	1166.5901	1178.1521	1196.0283	1209.6306	1242.3539	1260.2484	1276.6653	1277.615	1298.8899	1330.6632	1395.5692	1409.1754	1420.0558	1466.8911	1473.7723	1483.5616	1489.903	1495.4184	1498.3523	1507.7303	1509.1167	3022.4278	3039.1311	3046.1597	3049.8025	3053.1888	3064.4128	3073.7654	3087.7552	3094.5277	3097.0923	3097.6025	3112.1107	3127.7277	3156.2338
CC1OC1C1(C)CCC1	C[C@H]1O[C@H]1C1(C)CCC1	
InChI=1S/C8H14O/c1-6-7(9-6)8(2)4-3-5-8/h6-7H,3-5H2,1-2H3	InChI=1S/C8H14O/c1-6-7(9-6)8(2)4-3-5-8/h6-7H,3-5H2,1-2H3/t6-,7-/m1/s1
