17
gdb 37186	3.82942	1.67722	1.52131	2.5206	69.83	-0.2448	0.0493	0.2941	888.9038	0.137902	-421.707824	-421.701847	-421.700903	-421.737748	26.157	
C	 0.0148665959	 1.521660982	 0.18966448	-0.164257
O	 1.4328330211	 1.5335692323	-0.215110726	-0.355983
C	 1.2274628041	 0.2372245932	-0.7729280164	 0.414562
C	 0.4036393368	 0.1461497083	-2.1020404152	-0.284102
C	-0.3670543301	-0.9053560553	-1.275548191	-0.130869
C	 0.7833358262	-1.9581824782	-1.0355853575	 0.045755
O	 1.9259566151	-1.878414532	-1.9088539837	-0.248886
C	 1.9493256113	-1.1178520833	-0.6966159634	-0.052109
C	-0.0662089499	-0.0302605256	 0.0011364321	-0.065436
H	-0.0887949715	 1.8525645033	 1.2256685332	 0.11908
H	-0.5933328546	 2.1526084114	-0.4641860435	 0.118142
H	-0.1696730332	 1.0534058005	-2.2803349048	 0.106128
H	 0.9098417949	-0.1850118597	-3.0041182763	 0.125638
H	-1.3438944672	-1.299747433	-1.5541312617	 0.071883
H	 0.580532013	-2.9364885217	-0.6126126459	 0.106837
H	 2.7089428298	-1.358304865	 0.0386268398	 0.112387
H	-0.0053978118	-0.560732467	 0.9540417603	 0.081231
287.9211	319.1218	360.2415	450.8159	500.6333	535.3475	579.191	656.3305	755.3858	766.3629	809.0452	829.5689	867.04	886.8132	905.4341	932.9584	954.8364	978.1883	1015.7329	1021.1172	1046.8209	1079.8095	1080.1968	1091.4467	1147.4325	1161.7122	1192.4319	1204.2219	1237.3146	1249.2935	1266.2267	1293.5815	1316.693	1338.5407	1378.0679	1492.2085	1515.8914	3053.8194	3079.1868	3110.8525	3115.4314	3124.9107	3169.7506	3185.9971	3188.1469
C1OC23CC(C4OC24)C13	C1O[C@@]23C[C@@H]([C@H]4O[C@@H]24)[C@H]13	
InChI=1S/C7H8O2/c1-3-4-2-8-7(1,4)6-5(3)9-6/h3-6H,1-2H2	InChI=1S/C7H8O2/c1-3-4-2-8-7(1,4)6-5(3)9-6/h3-6H,1-2H2/t3-,4+,5-,6-,7-/m1/s1
