18
gdb 18645	2.87741	2.22215	1.8399	2.1278	66.65	-0.236	0.0732	0.3092	822.4282	0.155215	-384.93091	-384.923759	-384.922815	-384.96183	28.45	
C	 0.0383392206	 1.5535424076	-0.0478305514	-0.40898
C	 0.0704100993	 0.0344352624	 0.0377623198	 0.115866
O	 0.8115454939	-0.4802288671	-1.0857660373	-0.28779
C	 1.2428800176	-1.8055517766	-0.7571374443	-0.112726
C	 1.521630908	-1.7820772086	 0.7351865096	-0.128167
C	 2.2775612217	-0.5734068444	 1.2248138549	 0.132627
O	 3.0532089605	 0.2349295494	 0.3907165628	-0.435422
C	 0.7679043815	-0.5589575285	 1.2531563604	-0.127506
H	 1.0427508326	 1.9703855932	 0.0585900564	 0.136022
H	-0.3829221569	 1.8738248797	-1.0050153565	 0.125033
H	-0.5874069646	 1.9575766276	 0.7537987738	 0.118156
H	-0.9598149285	-0.3567641861	-0.0066341725	 0.074888
H	 0.4607039068	-2.5425012047	-0.9943574964	 0.102611
H	 2.1203178484	-2.0193815955	-1.3761856691	 0.117249
H	 1.5600163986	-2.7224421702	 1.2733828402	 0.08966
H	 2.7660619024	-0.6742168723	 2.1886536255	 0.10504
H	 2.5902842824	 0.2924153902	-0.4569473428	 0.295713
H	 0.2376795558	-0.5616633661	 2.1991179268	 0.087724
155.8376	223.6633	236.0856	251.3368	305.2674	440.1357	510.6381	563.3516	575.0213	707.1308	742.9847	761.4032	787.6095	841.7388	882.8706	970.1661	993.7096	1006.122	1029.4306	1056.2596	1078.5388	1101.1735	1119.8513	1129.5751	1158.0617	1188.9097	1241.6793	1313.7256	1314.9801	1340.1337	1348.222	1386.2605	1411.8398	1412.3547	1472.7364	1492.1178	1501.398	1515.0652	2959.2108	2991.7253	3046.048	3072.7709	3116.3452	3132.2414	3163.2068	3168.3509	3180.2951	3733.7852
CC1OCC2C(O)C12	C[C@H]1OC[C@H]2[C@@H](O)[C@@H]12	
InChI=1S/C6H10O2/c1-3-5-4(2-8-3)6(5)7/h3-7H,2H2,1H3	InChI=1S/C6H10O2/c1-3-5-4(2-8-3)6(5)7/h3-7H,2H2,1H3/t3-,4-,5+,6-/m1/s1
