18
gdb 22477	3.17779	0.68659	0.58953	1.2894	85.17	-0.2272	-0.0241	0.2031	1861.6273	0.144357	-439.008628	-438.997812	-438.996868	-439.046822	36.899	
C	-0.5809355356	 1.7557605902	-0.1695416245	-0.37471
C	-0.1464748488	 0.334849063	 0.2305128158	-0.277671
C	-1.254470773	-0.6762930725	 0.0216392214	 0.190697
N	-1.5268404329	-1.2572987512	-1.095926734	-0.168308
O	-0.6609283788	-0.8394901295	-2.1110856099	-0.394248
C	-2.0886521798	-1.0026071733	 1.1288573375	-0.027105
C	-2.746882101	-1.2199649803	 2.1160001437	 0.211978
C	-3.5753999709	-1.5164904297	 3.2761136004	-0.225616
O	-3.0110193309	-0.9143430124	 4.4335511014	-0.408886
H	 0.2348466544	 2.4647360076	 0.0001214805	 0.116272
H	-0.8524009433	 1.790122613	-1.2274028539	 0.136011
H	-1.4429642164	 2.0835274391	 0.4191943342	 0.127037
H	 0.7144925514	 0.0305305681	-0.3705325382	 0.129583
H	 0.1478443561	 0.3158380408	 1.2830942837	 0.116766
H	-0.9614202452	-1.3652451954	-2.8599729083	 0.310752
H	-4.5970330657	-1.1461613543	 3.0887656535	 0.122312
H	-3.6511525289	-2.6107248007	 3.3883580367	 0.123361
H	-3.5834615506	-1.1300152726	 5.17684729	 0.291775
16.2627	48.7957	78.3761	112.504	194.0222	218.8296	224.767	244.4833	296.1665	329.8481	412.4582	429.0795	475.6462	542.3912	597.6535	660.2411	740.1157	808.361	910.4326	987.2088	1021.4582	1029.3276	1062.5543	1087.8481	1102.8364	1241.9764	1244.7076	1271.5445	1300.6337	1346.531	1402.9369	1417.7286	1461.4823	1482.6138	1497.2965	1499.4041	1508.1636	1668.7209	2351.9927	2960.7298	2978.4695	3043.7634	3062.5554	3104.6518	3115.2684	3132.7451	3819.6425	3820.1534
CCC(=NO)C#CCO	CCC(=NO)C#CCO	
InChI=1S/C6H9NO2/c1-2-6(7-9)4-3-5-8/h8-9H,2,5H2,1H3	InChI=1S/C6H9NO2/c1-2-6(7-9)4-3-5-8/h8-9H,2,5H2,1H3
