14
gdb 10998	4.45441	1.81115	1.50738	3.665	62.99	-0.2433	-0.071	0.1723	833.49	0.106525	-382.544641	-382.537812	-382.536868	-382.57545	25.872	
C	-0.079514836	 1.5412018525	 0.046049924	-0.494112
C	 0.1317955866	 0.0553283638	 0.0083918961	 0.378498
O	-0.7246096579	-0.7565010284	 0.8437729816	-0.283546
C	 0.6967481804	-0.7658742419	 1.085493917	-0.162776
C	 1.4026297622	-1.9455238307	 0.4182958676	 0.401289
O	 2.0688646981	-2.7884762997	 0.9660449969	-0.313687
C	 1.139504517	-1.7959121805	-1.0455297674	-0.198855
C	 0.4604647188	-0.6665000545	-1.2785422301	-0.104431
H	 0.8055438367	 2.0687712491	-0.323873781	 0.134002
H	-0.9296140426	 1.8251547674	-0.5838943305	 0.134778
H	-0.2852218787	 1.8701920263	 1.0668939931	 0.142071
H	 1.0295117266	-0.3936643806	 2.0493803321	 0.114345
H	 1.4581773641	-2.5345489603	-1.7694793806	 0.128025
H	 0.1351371848	-0.3027189223	-2.2468028188	 0.124399
130.7445	193.2754	251.8325	284.621	397.1781	432.9428	477.8189	570.4958	659.5549	720.3931	754.9395	829.4094	833.9427	880.4706	912.459	981.591	1012.0842	1046.5806	1089.5573	1111.5183	1164.0132	1243.3688	1264.0294	1350.1709	1407.5969	1440.4706	1483.8646	1493.0512	1640.4807	1830.1177	3038.5678	3101.4067	3132.4756	3172.1237	3196.0697	3230.025
CC12OC1C(=O)C=C2	C[C@]12O[C@H]1C(=O)C=C2	
InChI=1S/C6H6O2/c1-6-3-2-4(7)5(6)8-6/h2-3,5H,1H3	InChI=1S/C6H6O2/c1-6-3-2-4(7)5(6)8-6/h2-3,5H,1H3/t5-,6+/m0/s1
