14
gdb 16149	4.24657	1.7442	1.45677	2.328	58.62	-0.2606	-0.0472	0.2134	841.5574	0.106713	-419.662628	-419.655849	-419.654904	-419.693777	24.723	
O	-0.6865907905	 0.8692500196	 0.50778444	-0.252943
C	 0.3181327528	 0.9087366674	-0.1570451976	 0.083744
C	 1.400352341	 1.9069094714	 0.0418516854	 0.287269
C	 1.4638845946	 2.8292735793	 1.2406568892	-0.146605
O	 2.3807387566	 3.8580025612	 0.879986716	-0.254211
C	 2.4135758646	 3.9951054624	-0.5320395702	-0.100573
C	 2.0174914378	 2.6409099344	-1.0860443983	-0.040769
O	 2.6928603327	 1.5509441207	-0.4810376178	-0.274511
H	 0.5231485694	 0.1912734034	-0.9807667148	 0.094927
H	 0.4558191996	 3.2173527065	 1.4457135495	 0.122193
H	 1.8448337571	 2.3431443636	 2.1430885293	 0.131075
H	 1.6993622704	 4.7524553785	-0.8949686676	 0.104405
H	 3.4249180683	 4.3012222278	-0.8180212057	 0.12941
H	 1.7179880256	 2.5175022839	-2.1238716474	 0.116589
111.1603	184.9397	211.2568	248.8957	367.9	434.7399	486.1248	650.8272	725.4149	786.2235	862.7548	902.7371	938.2516	981.1265	989.6542	1024.7506	1078.2505	1111.2035	1118.3728	1215.7384	1238.6822	1270.5704	1273.6501	1357.1658	1368.2585	1401.7262	1449.954	1499.0331	1511.4341	1817.5193	2907.3022	2977.1426	3012.9549	3078.3853	3092.9723	3154.4029
O=CC12COCC1O2	O=C[C@]12COC[C@H]1O2	
InChI=1S/C5H6O3/c6-2-5-3-7-1-4(5)8-5/h2,4H,1,3H2	InChI=1S/C5H6O3/c6-2-5-3-7-1-4(5)8-5/h2,4H,1,3H2/t4-,5+/m1/s1
