21
gdb 80429	2.4577	1.71631	1.27009	2.2038	77.42	-0.2469	0.0607	0.3076	1065.6996	0.183274	-424.219375	-424.21085	-424.209906	-424.251682	34.609	
C	-0.1222977639	 1.5395857335	-0.0160650444	-0.415062
C	 0.0671761861	 0.0247980059	-0.0359122714	-0.00393
C	 0.9551419627	-0.5287577298	-1.1790537366	-0.03132
C	 1.1751282489	-2.003473918	-0.7225607341	-0.284914
C	 1.9779104226	-1.3133889805	 0.4037435599	 0.441495
O	 2.8863503453	-2.0293744998	 1.1721497401	-0.500412
C	 2.3969631633	-0.2547551159	-0.6693160504	-0.296551
C	 0.876812015	-0.5692107002	 1.1743131158	 0.037248
O	 1.5197197921	 0.3695103034	 2.0295389826	-0.443934
H	 0.8296482873	 2.0715739282	 0.0482467256	 0.12992
H	-0.6383996464	 1.870616443	-0.9234031406	 0.112916
H	-0.7331297536	 1.8534429948	 0.8382444764	 0.099907
H	-0.9206472251	-0.4494207187	-0.0793891735	 0.065401
H	 0.6557443163	-0.2904681165	-2.1993191167	 0.060917
H	 0.2999094828	-2.5998381307	-0.4450807244	 0.086449
H	 1.8232105379	-2.566254981	-1.3972898915	 0.104483
H	 3.1005439377	-1.4708617172	 1.9301689204	 0.284019
H	 3.1618682552	-0.65318323	-1.3386612259	 0.098106
H	 2.6624684178	 0.7491191065	-0.3339863297	 0.101903
H	 0.2774505462	-1.268219797	 1.7729354031	 0.064885
H	 0.8677220518	 0.73663127	 2.6329939851	 0.288473
132.1454	202.3915	238.6567	252.2553	276.885	293.9673	367.3995	403.3165	440.242	479.3582	493.8201	569.5508	655.7488	695.3997	786.0111	821.6864	862.0478	889.0041	934.9807	941.6108	989.9293	999.8735	1020.5628	1028.8199	1079.5261	1087.3347	1129.0533	1142.9377	1156.1796	1166.6266	1216.7765	1218.913	1246.3248	1258.6605	1283.1255	1320.4157	1349.4048	1371.7154	1396.1209	1412.8074	1429.4767	1484.4736	1497.4969	1501.7885	1525.3766	3004.826	3028.3058	3034.6062	3049.5135	3076.0636	3089.4887	3116.0064	3121.7026	3123.4472	3138.3657	3778.03	3837.5468
CC1C2CC(O)(C2)C1O	C[C@H]1[C@@H]2C[C@@](O)(C2)[C@H]1O	
InChI=1S/C7H12O2/c1-4-5-2-7(9,3-5)6(4)8/h4-6,8-9H,2-3H2,1H3	InChI=1S/C7H12O2/c1-4-5-2-7(9,3-5)6(4)8/h4-6,8-9H,2-3H2,1H3/t4-,5-,6-,7-/m0/s1
