18
gdb 105434	2.44144	1.43885	1.19727	3.2163	77.16	-0.2578	0.0108	0.2686	1115.0359	0.147046	-401.960811	-401.952015	-401.95107	-401.994524	32.382	
C	-0.013660454	 1.4131257233	-0.0980003767	-0.26385
O	-0.0255300549	 0.0000566641	 0.0211878954	-0.271841
C	 0.6405744664	-0.556049315	 1.1433317112	 0.259667
C	-0.1360596978	-0.3078711042	 2.4796774965	-0.305524
C	-0.9122831851	-1.5849216413	 2.6740910064	-0.062252
C	-0.5186270467	-2.5477571638	 1.8457227261	-0.062477
C	 0.5931520403	-2.1005825238	 0.9343177383	-0.298105
C	 2.0314824344	-0.0591680008	 1.2176224413	 0.239096
N	 3.1152017058	 0.3391643506	 1.2735218409	-0.354391
H	 1.0089466545	 1.8052423477	-0.1673806918	 0.138233
H	-0.5491917713	 1.6414958111	-1.0214250139	 0.138166
H	-0.5262514332	 1.9103102289	 0.7362652366	 0.113561
H	 0.5521856413	-0.1219781081	 3.3132716107	 0.131676
H	-0.772581445	 0.5783279866	 2.396398607	 0.123498
H	-1.6841809512	-1.6784153715	 3.4289845983	 0.10288
H	-0.91449036	-3.5560506568	 1.8171249809	 0.103467
H	 0.4095951263	-2.3007725813	-0.1253114123	 0.137205
H	 1.5478734102	-2.5714931457	 1.1961933453	 0.13099
67.5155	107.4219	165.7495	170.006	217.208	289.6993	372.3185	379.7771	446.7469	499.9787	565.2331	620.3338	691.0004	768.263	792.6819	865.8809	937.1394	965.0567	973.648	987.5103	1038.2064	1080.7772	1092.1302	1125.1107	1141.2833	1181.3413	1185.9341	1224.6393	1259.2538	1300.1544	1340.3898	1363.3284	1465.9603	1473.5031	1480.8417	1491.3201	1509.7784	1696.3616	2348.7987	3005.0237	3036.9331	3042.0119	3064.2603	3082.3427	3091.8287	3130.606	3192.9935	3217.4395
COC1(CC=CC1)C#N	CO[C@]1(CC=CC1)C#N	
InChI=1S/C7H9NO/c1-9-7(6-8)4-2-3-5-7/h2-3H,4-5H2,1H3	InChI=1S/C7H9NO/c1-9-7(6-8)4-2-3-5-7/h2-3H,4-5H2,1H3
