18
gdb 91564	2.85101	1.29072	1.04272	4.6955	75.53	-0.2668	0.0257	0.2925	1176.6068	0.146618	-401.93161	-401.922913	-401.921969	-401.965406	32.164	
C	-0.1507941971	 1.5219637036	-0.0455872045	-0.414694
C	 0.0290711399	 0.0129304443	-0.1227726735	-0.046557
C	 1.2602423883	-0.5605312137	-0.9238388986	-0.262704
C	 1.7316722362	-1.2382581745	 0.3668622988	-0.053548
O	 1.9124319057	-0.2000343301	 1.346346004	-0.280982
C	 0.5917059058	-0.7029016369	 1.1271119315	 0.423297
C	-0.1513214359	-1.2555577413	 2.3147393009	-0.457353
C	-0.8061417398	-0.2114546748	 3.1080594618	 0.271923
N	-1.3338855566	 0.6145986018	 3.7192771322	-0.307396
H	 0.7630283712	 1.9936327929	 0.3258856681	 0.136541
H	-0.3739861005	 1.9369277134	-1.0339051834	 0.115414
H	-0.9712461547	 1.7911493434	 0.6269423072	 0.136634
H	-0.8923463391	-0.4764536291	-0.4559821369	 0.079727
H	 0.969376344	-1.2629729443	-1.7080721577	 0.109294
H	 1.9572016249	 0.1764980134	-1.3299248654	 0.117327
H	 2.3103805898	-2.1450032465	 0.5032179776	 0.108431
H	-0.918514547	-1.9640897381	 1.9806911351	 0.157953
H	 0.5488833249	-1.8026269134	 2.9544311529	 0.166692
54.4956	93.6009	175.3809	224.7385	236.5419	288.8541	356.1184	386.6983	436.3265	486.2637	559.6648	704.0132	721.8342	786.0723	858.3472	875.2997	921.8917	942.469	953.1132	963.6596	1021.0006	1063.2927	1105.294	1116.1711	1148.911	1192.7031	1224.5105	1244.7574	1257.2782	1291.5242	1326.6764	1361.1164	1406.9342	1445.3741	1452.1825	1480.673	1493.537	1503.296	2364.9294	3038.6303	3043.2876	3052.4865	3068.9912	3091.8855	3105.522	3121.0284	3127.183	3183.421
CC1CC2OC12CC#N	C[C@H]1C[C@H]2O[C@@]12CC#N	
InChI=1S/C7H9NO/c1-5-4-6-7(5,9-6)2-3-8/h5-6H,2,4H2,1H3	InChI=1S/C7H9NO/c1-5-4-6-7(5,9-6)2-3-8/h5-6H,2,4H2,1H3/t5-,6+,7-/m0/s1
