23
gdb 59868	3.01055	0.87178	0.84244	1.7791	83.08	-0.261	0.0202	0.2812	1578.892	0.202253	-425.486526	-425.475127	-425.474183	-425.52469	40.328	
C	 0.0085279015	 1.4779549162	 0.011367951	-0.397042
C	-0.0036366826	-0.046648514	-0.0271829763	 0.147598
C	 0.7922870877	-0.6298766865	-1.1854941907	-0.392891
O	 0.6047752129	-0.5721060087	 1.1830070759	-0.266391
C	-0.1767275206	-0.6610221416	 2.2794208836	 0.450023
O	-1.3416783183	-0.3451631112	 2.3058272901	-0.369257
C	 0.6184584672	-1.1899187646	 3.4650002965	-0.081886
C	 1.5615438682	-0.083299389	 3.978783581	-0.390944
C	-0.3164096243	-1.7031819961	 4.5618147377	-0.382488
H	 1.0333229117	 1.8534921944	 0.09778294	 0.11888
H	-0.428161276	 1.8797458384	-0.908342181	 0.118124
H	-0.5780630581	 1.8441507917	 0.8565433437	 0.140755
H	-1.0380162626	-0.4010837967	-0.0514189541	 0.10855
H	 1.8369011693	-0.3059051632	-1.1408971664	 0.12368
H	 0.7698072467	-1.722678188	-1.1614561834	 0.12352
H	 0.3693155198	-0.2962733288	-2.1377142427	 0.119653
H	 1.2403713201	-2.0103237511	 3.0882952928	 0.097113
H	 2.1705718987	-0.4602909241	 4.805862082	 0.118265
H	 2.2309656506	 0.263609363	 3.1878027588	 0.127999
H	 0.98832173	 0.7745114012	 4.3466197036	 0.125938
H	-0.9574648122	-2.5091986449	 4.1945839428	 0.12086
H	 0.2644463577	-2.0830969547	 5.4077386507	 0.10728
H	-0.9686313975	-0.9015857417	 4.9182375746	 0.132661
12.4515	65.0316	84.0051	144.5604	199.6302	210.5156	226.0155	243.4151	272.2904	292.6941	308.5956	361.4371	416.2778	449.2952	500.4423	644.6581	760.4204	826.7693	855.7139	905.6651	933.3877	934.0132	951.4156	963.7778	972.4572	1115.201	1128.3378	1140.2801	1162.578	1186.1008	1203.5107	1219.6482	1327.7561	1354.8626	1371.604	1388.0221	1401.3319	1402.6223	1417.0086	1421.958	1481.1112	1485.6572	1486.0494	1488.4007	1495.3952	1499.8001	1511.5874	1512.4945	1805.5846	3036.9491	3039.8104	3042.8686	3043.915	3045.6935	3073.0472	3105.9848	3108.8545	3115.559	3119.3554	3121.1818	3123.7296	3125.3242	3134.6266
CC(C)OC(=O)C(C)C	CC(C)OC(=O)C(C)C	
InChI=1S/C7H14O2/c1-5(2)7(8)9-6(3)4/h5-6H,1-4H3	InChI=1S/C7H14O2/c1-5(2)7(8)9-6(3)4/h5-6H,1-4H3
