19
gdb 94991	2.88433	1.80702	1.38442	2.3787	74.28	-0.2277	0.0782	0.3059	980.8495	0.160582	-422.984792	-422.977483	-422.976539	-423.016238	29.488	
C	 0.0532924013	 1.523593562	-0.0131968092	-0.405452
C	-0.0218672497	 0.0030281842	 0.0042682655	 0.126555
O	 0.5413007253	-0.4330130135	-1.2241663685	-0.257196
C	 0.7320726961	-1.8268290139	-1.3819207155	-0.093087
C	 1.269635518	-2.5413649925	-0.155946594	-0.080284
C	 2.2240222477	-1.9684557547	 0.8654316159	 0.095019
O	 2.1800447442	-0.5453663964	 0.9472725216	-0.291968
C	 0.7403847275	-0.6069982455	 1.1823741408	 0.086427
C	 0.7673138002	-2.1425642302	 1.2103842383	-0.187952
H	 1.0997708168	 1.8403822297	-0.0130858375	 0.141953
H	-0.4280676647	 1.9142109038	-0.9132900986	 0.123363
H	-0.4468611034	 1.9463486274	 0.8635369783	 0.108471
H	-1.0751187228	-0.3244996804	 0.0850182317	 0.061564
H	-0.2199918935	-2.3129903223	-1.6612720861	 0.085445
H	 1.4161119215	-1.9315544354	-2.2312253746	 0.111922
H	 1.383464923	-3.6152122723	-0.2890483198	 0.092955
H	 3.1222177529	-2.4642924731	 1.2149608168	 0.105541
H	 0.4796181344	-0.1292968192	 2.1316684409	 0.082032
H	 0.2577062954	-2.7863905875	 1.9141211139	 0.094691
134.6152	197.0002	233.4963	274.9862	336.6164	393.9561	478.8526	505.1211	663.3401	716.7551	730.4707	796.7274	819.3202	837.3995	877.0176	920.2314	951.1618	989.119	995.641	1020.8212	1051.2613	1055.0272	1085.5759	1091.2587	1115.3204	1129.9821	1161.2504	1182.7886	1240.5618	1275.8114	1290.9726	1302.9804	1325.3192	1363.6771	1376.89	1403.4297	1411.1721	1450.1558	1483.8118	1498.671	1503.8482	2931.7969	2942.5844	3044.674	3060.2245	3063.6696	3120.1274	3129.569	3138.8736	3180.4074	3202.9315
CC1OCC2C3OC1C23	C[C@H]1OC[C@H]2[C@H]3O[C@@H]1[C@@H]23	
InChI=1S/C7H10O2/c1-3-6-5-4(2-8-3)7(5)9-6/h3-7H,2H2,1H3	InChI=1S/C7H10O2/c1-3-6-5-4(2-8-3)7(5)9-6/h3-7H,2H2,1H3/t3-,4-,5-,6+,7-/m1/s1
