19
gdb 37443	2.57174	1.93979	1.92483	2.2137	72.45	-0.2466	0.0812	0.3278	872.3845	0.163628	-423.017296	-423.01089	-423.009945	-423.047653	27.396	
C	-0.0520865526	 1.5123198813	-0.1117714819	-0.322222
C	 1.294164818	 0.8425092393	 0.0311586728	-0.031648
C	 0.0260748593	 0.0156145145	 0.0157144355	-0.048834
C	-0.1346149331	-0.6264914981	 1.3897218627	 0.194373
O	 0.9413920284	-1.5275822995	 1.6030626498	-0.273078
C	 2.2134724504	-0.8641454888	 1.5328404824	-0.056265
C	 1.9876164563	 0.6532384953	 1.3796621305	-0.092205
C	 1.0597738093	 1.0611114498	 2.5275570228	-0.081187
O	-0.1809327759	 0.3474785765	 2.4142156861	-0.27056
H	-0.4775473709	 2.0763577082	 0.7085270467	 0.13089
H	-0.2837031534	 1.9059779588	-1.09541277	 0.110356
H	 1.9421849124	 0.8278645252	-0.83939652	 0.087626
H	-0.2150511954	-0.616554619	-0.8317758315	 0.09156
H	-1.0457709156	-1.2182059891	 1.4911686786	 0.08881
H	 2.7604725579	-1.0894101303	 2.4574489909	 0.100157
H	 2.7885153027	-1.2656075143	 0.6873042622	 0.094219
H	 2.9349954544	 1.1956453724	 1.4484565438	 0.073772
H	 1.5226153717	 0.8186009851	 3.4939243725	 0.100976
H	 0.8463031161	 2.1363730926	 2.515089176	 0.103258
193.9547	301.0859	333.4583	346.9085	432.1698	528.9662	580.6724	590.2312	683.2545	749.6852	820.3079	835.1727	877.7781	892.2349	909.1376	953.3868	958.862	963.4579	1009.5288	1034.6695	1057.9059	1078.4253	1084.3645	1110.4864	1118.0359	1130.2377	1164.2899	1206.3423	1224.3229	1229.2052	1297.1101	1331.1562	1338.3192	1355.9302	1363.9169	1392.1935	1405.2794	1421.7461	1493.2805	1519.7297	1533.24	3001.9176	3007.2552	3040.3173	3049.1235	3068.7513	3105.1544	3143.7873	3154.0559	3171.2908	3232.275
C1C2C1C1OCC2CO1	C1[C@@H]2[C@H]1[C@H]1OC[C@@H]2CO1	
InChI=1S/C7H10O2/c1-5-4-2-8-7(6(1)5)9-3-4/h4-7H,1-3H2	InChI=1S/C7H10O2/c1-5-4-2-8-7(6(1)5)9-3-4/h4-7H,1-3H2/t4-,5-,6-,7+/m0/s1
