16
gdb 71067	2.47532	1.80237	1.53054	3.7743	70.62	-0.2131	-0.0538	0.1593	939.8633	0.121405	-437.743394	-437.735293	-437.734349	-437.775422	31.128	
C	-0.0626802951	 1.445498522	-0.1419924331	-0.502659
C	-0.1084220594	-0.0439921657	-0.0917059008	 0.370286
O	 0.6923830518	-0.7566213011	-1.150990458	-0.293836
C	 0.1050584387	-1.8698770164	-0.5404749041	 0.182936
N	 0.7591049556	-2.6912134381	 0.1683047058	-0.230048
C	 0.2855611456	-2.3052648178	 1.5484511088	-0.176639
C	-0.3934878227	-0.9301945237	 1.3125839611	-0.216356
C	-1.1282798819	-1.0630725599	 0.0329132365	 0.249822
O	-2.4547640178	-1.0695407401	-0.3186920855	-0.457893
H	 0.9457027029	 1.8138988604	 0.0648365777	 0.148174
H	-0.36543743	 1.794280068	-1.1337366463	 0.150979
H	-0.7474760899	 1.862809531	 0.6006958524	 0.14023
H	-0.3914074523	-3.0207970013	 2.0420877676	 0.105363
H	 1.1996856148	-2.2417990851	 2.1459101992	 0.137397
H	-0.7621727119	-0.3184832163	 2.1338417955	 0.096861
H	-2.8951122384	-1.7848698259	 0.1546339532	 0.295383
167.8772	182.5115	214.0165	237.5935	255.1123	296.8678	321.4019	431.1813	493.7386	554.1503	603.4472	634.8267	682.3383	726.5862	828.7471	889.1644	914.622	942.18	955.0704	1022.6103	1029.6467	1074.0531	1089.2727	1148.1255	1171.874	1226.1256	1261.8382	1282.8216	1339.0768	1405.9298	1466.4574	1484.3616	1490.4807	1550.5699	1628.3044	2974.4373	3047.0575	3080.4481	3119.04	3129.1529	3142.0433	3795.5772
CC12OC3=NCC1C23O	C[C@@]12O[C]3[N]C[C@@H]1[C@@]23O	
InChI=1S/C6H7NO2/c1-5-3-2-7-4(9-5)6(3,5)8/h3,8H,2H2,1H3	InChI=1S/C6H7NO2/c1-5-3-2-7-4(9-5)6(3,5)8/h3,8H,2H2,1H3/t3-,5+,6-/m0/s1
