19
gdb 71965	2.75145	1.65561	1.20298	0.9104	87.58	-0.2277	0.0425	0.2702	1071.2989	0.158605	-348.681644	-348.6735	-348.672555	-348.713767	32.734	
C	-0.0504926685	 1.4769347929	 0.0128958395	-0.508693
C	 0.0290963208	-0.0190097941	-0.0104256307	 0.29294
C	 0.9005597695	-0.8895845874	-0.9176146003	-0.279061
C	 0.0299171864	-2.0852767898	-0.4473328804	-0.086147
C	 0.4006454324	-2.248028776	 1.0477779193	-0.296648
C	-0.262769494	-0.8810234445	 1.2587610962	 0.206926
C	-0.6625525399	-0.2958110208	 2.489344602	 0.123006
C	-0.9889943291	 0.1875305058	 3.5435199213	-0.395901
C	-1.0788441918	-1.0389494701	-0.0268413801	-0.168337
H	 0.896941226	 1.9158483347	 0.3464148692	 0.123384
H	-0.2703994894	 1.8720550406	-0.9851410544	 0.11628
H	-0.8315350188	 1.8209798053	 0.696802273	 0.133194
H	 0.7206893165	-0.6432518208	-1.9687537957	 0.098881
H	 1.9798235541	-0.9428864808	-0.7307040542	 0.089082
H	-0.1205146731	-2.9546355817	-1.0825761976	 0.075757
H	-0.1815980749	-3.034397079	 1.5348585746	 0.107384
H	 1.4612643964	-2.3605387432	 1.2999418466	 0.093246
H	-1.2801028187	 0.6118512404	 4.4718723572	 0.177169
H	-2.145300964	-0.9605397115	-0.1833609954	 0.097537
133.4752	143.016	193.0574	251.338	302.6038	402.012	428.8361	492.0723	508.9676	559.8358	569.1574	637.0061	651.0682	697.9027	760.1881	813.8325	889.8003	900.3278	904.8823	948.344	971.4285	985.7634	1031.2987	1053.6965	1099.595	1120.5076	1128.1652	1160.2301	1172.9331	1219.1955	1239.5499	1258.4257	1275.5662	1347.6613	1389.8131	1422.9939	1485.883	1491.6046	1495.5357	1508.7296	2226.4245	3025.3906	3028.308	3036.563	3085.294	3087.4661	3102.6197	3111.359	3145.3551	3220.2842	3504.2194
CC12CC3CC1(C#C)C23	C[C@@]12C[C@H]3C[C@]1(C#C)[C@@H]23	
InChI=1S/C9H10/c1-3-9-5-6-4-8(9,2)7(6)9/h1,6-7H,4-5H2,2H3	InChI=1S/C9H10/c1-3-9-5-6-4-8(9,2)7(6)9/h1,6-7H,4-5H2,2H3/t6-,7+,8-,9+/m0/s1
