17
gdb 75099	3.05496	1.36988	0.95675	1.5158	79.53	-0.2553	-0.0395	0.2158	1189.2975	0.137491	-418.081166	-418.072955	-418.07201	-418.11422	30.911	
C	 0.028329471	 1.5156235937	-0.2182757506	-0.471508
C	-0.0038885547	 0.0239210432	-0.0446317398	 0.305732
C	-1.1343561724	-0.690732599	-0.0156575322	-0.175218
C	-1.1923308913	-2.175786251	 0.1558896429	-0.405303
C	 0.1478088508	-2.8712550471	 0.3034427268	 0.412373
O	 0.2621426228	-4.0684208047	 0.4503438553	-0.357946
N	 1.2551239229	-2.0467195638	 0.2602574653	-0.398476
C	 1.3011970445	-0.6550545484	 0.0986322937	 0.324403
N	 2.3831680597	 0.0243742964	 0.0712075618	-0.510733
H	 0.6080492623	 1.7924252542	-1.1038471295	 0.144743
H	-0.9840098076	 1.9154643952	-0.3150677965	 0.112442
H	 0.5225875284	 1.9962611948	 0.631228447	 0.144704
H	-2.0883267407	-0.180594654	-0.1219896908	 0.104735
H	-1.7941560604	-2.4468630948	 1.0336104015	 0.155483
H	-1.7092978402	-2.6491120209	-0.689578763	 0.155495
H	 2.1360674992	-2.5352054533	 0.3608516918	 0.249333
H	 3.2088864155	-0.5676348305	 0.1809619063	 0.209741
65.5796	131.9145	164.7533	238.3128	312.2781	373.9535	376.1719	441.5295	524.9396	539.8664	581.0121	681.5133	704.0492	735.931	757.6837	848.5475	880.3636	906.0053	976.9428	979.4254	1076.477	1076.8893	1129.9556	1189.1516	1205.184	1281.96	1331.4603	1374.1391	1416.0583	1420.9359	1433.812	1447.2534	1469.1641	1487.0947	1694.3157	1736.2986	1809.3032	3026.7116	3046.0263	3047.75	3106.5823	3126.6924	3161.9861	3453.8784	3581.8271
CC1=CCC(=O)NC1=N	CC1=C(NC(=O)C[CH]1)[NH]	
InChI=1S/C6H8N2O/c1-4-2-3-5(9)8-6(4)7/h2H,3H2,1H3,(H2,7,8,9)	InChI=1S/C6H8N2O/c1-4-2-3-5(9)8-6(4)7/h2H,3H2,1H3,(H2,7,8,9)
