25
gdb 111208	2.65109	1.01368	0.86253	0.1382	93.94	-0.2849	0.0938	0.3787	1525.2861	0.229405	-352.311591	-352.301917	-352.300973	-352.346601	37.087	
C	-0.1423094268	 1.7451214944	-0.2823265894	-0.372599
C	-0.0089625709	 0.2418384436	-0.0068129652	-0.234092
C	-1.3581874335	-0.4694855456	-0.0322615286	 0.07846
C	-2.103390939	-0.8079908498	-1.3692673265	-0.070076
C	-1.0812413626	-1.9620889247	-1.5838245709	-0.234467
C	-1.4800107031	-2.0292025159	-0.0800792127	-0.104516
C	-2.9573697511	-1.8496728528	-0.5650339718	 0.080231
C	-4.0985260621	-1.4547309278	 0.3652506768	-0.240817
C	-5.3521209768	-1.0260297755	-0.4083324331	-0.370825
H	 0.8258742929	 2.2506750365	-0.2119936129	 0.109556
H	-0.5428918886	 1.9298338604	-1.2849189191	 0.116304
H	-0.8195306738	 2.2215206032	 0.4355933563	 0.11205
H	 0.6976526678	-0.1935958407	-0.720096024	 0.096258
H	 0.4368240878	 0.0950791978	 0.9862972361	 0.093458
H	-1.9992883931	 0.0007579805	 0.7190008837	 0.056489
H	-2.4646930666	-0.1046284916	-2.1227491612	 0.061369
H	-1.4169367382	-2.793933789	-2.2097289032	 0.085216
H	-0.0534760691	-1.6903459442	-1.8233784134	 0.090365
H	-1.1171883189	-2.7407464745	 0.6657031632	 0.059494
H	-3.2932287449	-2.6825490189	-1.1963388036	 0.05545
H	-4.340654012	-2.3209864457	 0.9954033124	 0.094536
H	-3.8091050323	-0.6553665253	 1.054275442	 0.099367
H	-6.1786334624	-0.7929271971	 0.2701706687	 0.109448
H	-5.1570050659	-0.1354697878	-1.0153638014	 0.116407
H	-5.6902767766	-1.8182108297	-1.085748762	 0.112933
56.5496	67.468	152.552	170.6475	200.0194	223.2925	290.1735	372.4409	386.9106	417.6691	552.9532	574.7936	734.9695	743.3707	786.4949	827.2839	836.5104	877.8495	882.6415	895.9825	953.5715	965.9731	1019.7083	1037.2569	1047.6649	1054.2314	1060.2946	1071.5909	1107.2927	1131.4409	1137.2803	1161.9147	1174.0244	1191.905	1209.4771	1238.2267	1246.9781	1266.1948	1292.9239	1298.1319	1344.115	1352.1906	1407.8147	1409.4209	1433.4667	1440.2099	1484.715	1489.6235	1498.7656	1499.5461	1505.8521	1508.8336	1531.7949	3012.9811	3018.9948	3022.0559	3029.1689	3030.1107	3052.0978	3057.9271	3069.0788	3077.2077	3079.1645	3088.3097	3098.3626	3100.5131	3101.6684	3102.2869	3134.2797
CCC1C2CC1C2CC	CC[C@H]1[C@H]2C[C@@H]1[C@H]2CC	
InChI=1S/C9H16/c1-3-6-8-5-9(6)7(8)4-2/h6-9H,3-5H2,1-2H3	InChI=1S/C9H16/c1-3-6-8-5-9(6)7(8)4-2/h6-9H,3-5H2,1-2H3/t6-,7-,8-,9+
