23
gdb 105540	2.18753	1.36803	1.06167	1.3687	85.43	-0.2567	0.076	0.3327	1266.5258	0.205776	-388.257451	-388.247853	-388.246909	-388.292473	36.485	
O	 0.304938996	 1.4422701444	 0.0363515312	-0.422717
C	 0.2089436148	 0.0246292421	 0.1250546532	-0.179805
C	-1.2630597485	-0.369625118	 0.0739377765	 0.349671
C	-2.1930754471	 0.4055518683	 1.0687666803	-0.254622
C	-3.1801812393	 0.6862894678	-0.0957267574	-0.208908
C	-2.0794878192	 0.2625461098	-1.1047628716	-0.254582
C	-1.4953455435	-1.8692056904	 0.1604322787	-0.027093
C	-0.6168339202	-2.9133297498	-0.484738485	-0.286967
C	-0.6942277657	-2.8145272722	 1.0222961839	-0.286993
H	 1.2353807766	 1.6802492665	 0.0696163076	 0.287564
H	 0.7535818995	-0.4469291592	-0.7076209473	 0.087087
H	 0.6605004228	-0.3297185317	 1.0646670264	 0.087104
H	-2.5686660774	-0.1667578351	 1.921338414	 0.086803
H	-1.713373951	 1.3164058516	 1.4307447325	 0.112946
H	-4.0367745999	 0.0064507047	-0.0957647013	 0.095545
H	-3.5584406917	 1.7073137717	-0.1826657347	 0.094721
H	-1.5586003742	 1.1215301655	-1.5309200818	 0.112964
H	-2.368472944	-0.4188368415	-1.9095525235	 0.086809
H	-2.5564471585	-2.1063788489	 0.1214498238	 0.081446
H	-1.0969105367	-3.7540992256	-0.9738060289	 0.108719
H	 0.3070712697	-2.6031100689	-0.9599052936	 0.1108
H	 0.1784570332	-2.4389025269	 1.544733346	 0.110791
H	-1.2272785258	-3.5876492843	 1.5651520411	 0.108717
31.3592	107.7778	128.8827	195.0216	213.5548	246.8064	301.5956	316.2426	344.139	469.4044	513.9825	622.6242	695.8776	782.473	784.4573	822.4927	828.0757	877.0592	897.994	939.3086	947.4098	957.9267	970.1943	1054.9608	1056.8813	1074.2053	1078.9444	1095.007	1123.78	1134.6893	1150.6638	1198.6815	1214.1099	1218.3903	1235.3431	1252.3396	1262.053	1270.5665	1289.1649	1299.4691	1336.616	1411.6972	1455.1338	1470.8099	1472.8444	1483.8099	1503.7633	1507.9866	1518.7819	2967.7246	3000.9285	3055.2546	3059.085	3065.7138	3099.2755	3122.0807	3124.1723	3130.9737	3131.4994	3136.2498	3205.5871	3221.1472	3840.3945
OCC1(CCC1)C1CC1	OCC1(CCC1)C1CC1	
InChI=1S/C8H14O/c9-6-8(4-1-5-8)7-2-3-7/h7,9H,1-6H2	InChI=1S/C8H14O/c9-6-8(4-1-5-8)7-2-3-7/h7,9H,1-6H2
