22
gdb 86913	5.3084	0.69161	0.67668	2.2064	84.	-0.2305	0.0781	0.3086	1726.8016	0.193926	-404.29958	-404.290262	-404.289318	-404.334503	35.007	
O	-0.0518349203	 1.3328610305	-0.2723090046	-0.431419
C	 0.0327857625	-0.0490992681	-0.012038595	 0.145603
C	 0.2472258701	-0.5328243578	 1.4504982009	-0.291677
C	-0.8391993418	-1.6152882962	 1.1929521956	 0.040772
C	-1.8242124421	-1.9215734535	 2.3085807359	-0.162501
N	-2.8772023891	-2.8203609243	 1.8457891483	-0.057362
C	-2.6203077937	-4.2489589328	 1.9956260887	-0.218988
C	-3.6017503207	-3.5549501003	 2.8746208072	-0.219362
C	-1.3252552628	-0.7764533893	-0.0218046851	-0.232221
H	 0.8381187154	 1.6991716026	-0.258211822	 0.27964
H	 0.7473474751	-0.537542153	-0.6910043217	 0.062392
H	 1.2457082514	-0.8573847301	 1.7552462889	 0.088381
H	-0.1133785647	 0.2320219249	 2.1465606442	 0.1019
H	-0.3758388381	-2.5478488908	 0.8518215415	 0.068906
H	-1.2823333978	-2.3354296826	 3.1814588362	 0.073634
H	-2.3019803605	-0.9910236912	 2.6411602537	 0.097924
H	-2.9575075601	-4.8826113017	 1.1802699422	 0.11541
H	-1.6784075425	-4.5539246164	 2.450607731	 0.106133
H	-3.3123623395	-3.3989440821	 3.9131597652	 0.106612
H	-4.6697590449	-3.6706036465	 2.7125475844	 0.115692
H	-2.1175505809	-0.0817644387	 0.2736622212	 0.110937
H	-1.628308345	-1.2967608227	-0.9317345765	 0.099593
59.2331	63.6358	108.6917	150.856	265.5302	297.7447	323.0346	390.1961	425.769	426.9651	470.2585	619.4681	767.0859	800.5105	810.619	838.0527	893.9143	913.9945	944.9635	955.6138	1019.9389	1023.9004	1029.5957	1057.4177	1085.8941	1111.6097	1115.5621	1123.2299	1159.6169	1180.6309	1181.3874	1215.4178	1219.1863	1250.3832	1265.985	1267.4349	1299.3482	1321.8567	1328.6025	1356.4535	1403.1127	1432.0581	1469.6454	1486.023	1493.9206	1502.1702	1522.0882	2911.4679	2986.9103	3031.1892	3045.5063	3048.6946	3064.1355	3089.0147	3093.8221	3105.1784	3124.9278	3172.9469	3187.2081	3813.918
OC1CC(CN2CC2)C1	O[C@H]1C[C@@H](CN2CC2)C1	
InChI=1S/C7H13NO/c9-7-3-6(4-7)5-8-1-2-8/h6-7,9H,1-5H2	InChI=1S/C7H13NO/c9-7-3-6(4-7)5-8-1-2-8/h6-7,9H,1-5H2/t6-,7+
