19
gdb 97137	4.08143	1.10752	0.99652	3.5428	80.14	-0.234	0.0226	0.2566	1263.022	0.159454	-419.200159	-419.19135	-419.190405	-419.233747	32.629	
C	-0.1997296185	 1.3993120362	 0.0965352446	-0.328675
N	-0.1900709016	-0.054087142	 0.15118077	-0.345208
C	 0.6119058807	-0.632376813	 0.9306629163	 0.518134
O	 1.4917969523	-0.0057853406	 1.7820606101	-0.265065
C	 2.4650202614	-0.9304607163	 2.2930171971	-0.115372
C	 1.9790207073	-2.3236216103	 1.9199014563	 0.30943
C	 2.9669730874	-3.4471007839	 1.763894295	-0.497686
N	 0.6361503596	-2.5484098697	 2.4821628827	-0.36479
C	 0.7870030882	-2.1016623824	 1.0641491981	-0.239471
H	 0.7379799322	 1.8610645489	 0.4279574344	 0.119073
H	-0.4143605181	 1.714577118	-0.9292763603	 0.117697
H	-1.0082146471	 1.787511902	 0.7286753594	 0.12734
H	 3.4373625196	-0.7142114828	 1.8328700845	 0.107474
H	 2.5360476443	-0.7854420752	 3.3750511549	 0.123084
H	 3.4368397013	-3.6943227441	 2.7227826809	 0.133461
H	 2.4743001639	-4.3504175073	 1.3904972224	 0.124823
H	 3.7624470332	-3.1813301314	 1.0598520534	 0.132787
H	 0.4394064313	-3.5484026956	 2.4706669655	 0.232339
H	 0.4846829425	-2.7507750306	 0.2529374947	 0.110626
80.7661	98.8691	180.9369	201.5711	217.8542	259.2285	328.5309	372.465	425.9943	471.2253	586.6307	680.8329	705.6909	771.7948	837.698	866.53	922.9619	964.7415	996.429	1003.8211	1038.2317	1060.0399	1084.7205	1113.981	1126.8925	1137.3458	1177.8639	1210.9905	1236.3227	1305.428	1337.1261	1391.1825	1420.0873	1438.0344	1450.2353	1486.0385	1491.2706	1496.8109	1500.5531	1505.7026	1804.6641	3012.964	3025.4894	3030.519	3070.6841	3087.5502	3092.1423	3092.7959	3104.9175	3209.9975	3477.2215
CN=C1OCC2(C)NC12	CN=C1OC[C@@]2(C)N[C@@H]12	
InChI=1S/C6H10N2O/c1-6-3-9-5(7-2)4(6)8-6/h4,8H,3H2,1-2H3	InChI=1S/C6H10N2O/c1-6-3-9-5(7-2)4(6)8-6/h4,8H,3H2,1-2H3/t4-,6+/m0/s1
