16
gdb 132745	2.27899	1.81197	1.01573	0.9813	75.51	-0.2209	0.0008	0.2217	1109.9218	0.124129	-445.928374	-445.920323	-445.919378	-445.961031	30.634	
C	-0.0259006876	 1.5112091532	-0.0385301159	-0.498063
C	-0.0028486288	 0.0060001132	 0.0168759076	 0.188251
C	 0.0650935985	-0.7341391995	-1.1546656866	 0.082282
F	 0.1108684416	-0.1005119959	-2.3519710267	-0.101356
C	 0.0902210742	-2.1273881577	-1.1845154131	 0.289104
O	 0.1573671757	-2.8014255227	-2.3627248707	-0.438543
C	 0.0449375569	-2.8189647168	 0.0231068008	-0.224338
C	-0.0235382473	-2.1048877689	 1.2154562545	-0.089842
C	-0.0472544818	-0.7121051494	 1.2157979484	-0.21563
H	 0.8703199363	 1.9067322299	-0.5283281904	 0.138098
H	-0.8858115494	 1.8768294268	-0.6098847601	 0.138103
H	-0.0798258052	 1.9338143907	 0.9671501131	 0.126232
H	 0.1797837273	-2.1493221808	-3.0738462944	 0.302682
H	 0.0642451547	-3.9022774905	 0.0046537653	 0.110943
H	-0.0588176839	-2.6431718886	 2.1563649049	 0.097718
H	-0.1007611612	-0.1680702431	 2.1527764333	 0.094359
74.48	151.1307	239.1121	268.9319	300.2978	300.4468	435.3272	492.846	503.579	537.1325	571.223	572.357	689.8392	719.9892	788.5768	828.1347	881.2592	945.7183	966.0764	1048.5173	1060.3717	1099.0961	1181.267	1189.9748	1258.5586	1296.2389	1336.3573	1394.9709	1415.9329	1479.0635	1481.7217	1522.6688	1527.8378	1641.4158	1660.9924	3037.5953	3090.6812	3125.7922	3176.8128	3191.9372	3206.9656	3795.1389
CC1=C(F)C(O)=CC=C1	Cc1c(F)c(O)ccc1	
InChI=1S/C7H7FO/c1-5-3-2-4-6(9)7(5)8/h2-4,9H,1H3	InChI=1S/C7H7FO/c1-5-3-2-4-6(9)7(5)8/h2-4,9H,1H3
