13
gdb 129903	3.43134	1.78545	1.18185	0.8252	65.87	-0.2239	-0.0336	0.1903	940.0592	0.092706	-445.079265	-445.072491	-445.071546	-445.110375	25.66	
N	-0.0545435601	 1.4217289987	 0.0271610514	-0.604775
C	-0.0480241921	 0.0245546387	 0.0230252654	 0.195256
C	-1.0781874708	-0.8922408151	 0.0716259976	-0.081381
N	-0.6637665892	-2.2168265281	 0.0467558914	-0.395659
C	 0.6371172963	-2.0907116156	-0.0172463677	 0.545925
N	 1.7953744842	-2.8059353	-0.0763874114	-0.363336
N	 2.861151036	-1.9635682851	-0.1267983628	-0.069177
N	 2.4442616389	-0.7487134893	-0.102541153	-0.145935
N	 1.0865187358	-0.8007167774	-0.0354649025	-0.00682
H	 0.4358047305	 1.8165796713	 0.823095062	 0.250302
H	 0.3419851716	 1.8212184532	-0.8172918476	 0.250269
H	-2.1280815543	-0.644319049	 0.1244526364	 0.124677
H	 1.9451404331	-3.7999137524	-0.0871168591	 0.300652
155.9453	199.6514	254.8469	260.8265	382.2337	437.7924	563.3264	613.2982	647.507	681.5791	709.6429	750.7801	776.6616	828.0086	883.9625	1026.9385	1048.2699	1125.7323	1190.3613	1220.1946	1229.1856	1273.9975	1302.1606	1343.5243	1409.8715	1441.8929	1603.4672	1653.7173	1668.2455	3251.3445	3498.7395	3564.9784	3694.5747
NC1=CN=C2NN=NN12	Nc1cnc2[nH]nnn12	
InChI=1S/C3H4N6/c4-2-1-5-3-6-7-8-9(2)3/h1H,4H2,(H,5,6,8)	InChI=1S/C3H4N6/c4-2-1-5-3-6-7-8-9(2)3/h1H,4H2,(H,5,6,8)
