25
gdb 115498	3.52871	0.82814	0.7836	0.9459	89.71	-0.244	0.0854	0.3294	1641.1779	0.229079	-389.505981	-389.49569	-389.494746	-389.541959	37.938	
C	-0.3440248766	 1.5535773449	 0.3677293345	-0.384245
C	-0.0931623067	 0.0605522972	 0.1306757093	-0.192679
C	-1.3615870061	-0.7451102017	-0.1575441963	 0.067058
C	-2.097374173	-0.3650289685	-1.462270785	-0.209313
C	-2.9272554656	-1.6162652037	-1.8589330751	-0.236684
C	-2.4466987268	-2.7661216687	-0.9284157548	 0.127496
C	-1.1292028774	-2.2546270796	-0.3401031039	-0.240996
O	-3.3324862356	-2.9783956132	 0.1668041956	-0.248289
C	-4.4909443297	-3.7042487009	-0.1611625298	-0.234433
H	 0.5870239418	 2.080361188	 0.5995983136	 0.108961
H	-0.7842821543	 2.0318289122	-0.5133058494	 0.116287
H	-1.0318530069	 1.7093538546	 1.2065690202	 0.113208
H	 0.6075573852	-0.0654474477	-0.70701904	 0.086938
H	 0.4068619375	-0.3642152978	 1.0109344272	 0.091378
H	-2.0578622202	-0.6186571274	 0.6824519116	 0.080933
H	-2.7177839145	 0.5282418794	-1.3530982075	 0.096254
H	-1.3570072968	-0.1418006302	-2.2411249883	 0.091265
H	-3.9993950851	-1.453603981	-1.7195918378	 0.104396
H	-2.7815994518	-1.8743711522	-2.9121529838	 0.095255
H	-2.3254330971	-3.7136709577	-1.4744855137	 0.052629
H	-0.3179622559	-2.4202920419	-1.061460437	 0.087254
H	-0.8756753781	-2.7802629737	 0.5840598827	 0.101284
H	-5.0623464992	-3.8387006571	 0.7610551698	 0.123915
H	-5.1288466942	-3.1827101003	-0.8913408598	 0.10167
H	-4.2448821429	-4.6961718233	-0.5739107723	 0.100461
43.6533	83.4953	105.2186	127.6814	184.9133	210.8988	243.996	310.553	340.0957	380.9605	422.6787	479.8939	567.3759	727.0252	768.325	794.9979	827.3215	864.1063	902.2739	944.2666	959.2302	965.6822	994.1365	1034.3116	1046.8903	1093.3697	1120.9724	1137.4722	1149.8676	1183.655	1187.1275	1221.4039	1232.9697	1239.9514	1278.7257	1291.4786	1313.8588	1321.7922	1333.8373	1355.6009	1371.0825	1391.8481	1396.0963	1412.4023	1472.7116	1477.6607	1480.0824	1485.2162	1488.979	1500.3405	1504.9232	1508.0271	1511.204	2967.4101	2984.8019	3003.2412	3012.3822	3013.1769	3024.0263	3030.956	3031.463	3042.8202	3057.6233	3082.6015	3097.0887	3099.9684	3102.3938	3104.0068	3107.2938
CCC1CCC(C1)OC	CC[C@H]1CC[C@@H](C1)OC	
InChI=1S/C8H16O/c1-3-7-4-5-8(6-7)9-2/h7-8H,3-6H2,1-2H3	InChI=1S/C8H16O/c1-3-7-4-5-8(6-7)9-2/h7-8H,3-6H2,1-2H3/t7-,8-/m0/s1
