18
gdb 69638	2.99276	1.30261	1.17926	3.0754	78.66	-0.2175	-0.016	0.2015	1121.1516	0.146559	-401.884628	-401.876486	-401.875542	-401.917149	31.624	
C	-0.0356784483	 1.5206118719	 0.0283607867	-0.509969
C	 0.0841364867	 0.0305483094	 0.0125025023	 0.348378
N	-0.8744149115	-0.8728298046	 0.6984167712	-0.385808
C	 0.5766098412	-0.9357086198	 1.016248377	-0.185264
C	 1.290685518	-1.7780212445	-0.0665285826	 0.266143
C	 0.3575836693	-2.2060800718	-1.186111315	-0.343139
C	 0.7507637795	-0.7766490245	-1.1436502769	-0.144509
C	 2.6785887251	-2.2051228543	 0.0368683838	 0.059555
O	 3.3508816809	-2.1191536713	 1.0419610369	-0.287393
H	 0.9077867365	 1.9926061413	-0.2666372493	 0.132862
H	-0.813401274	 1.8652263278	-0.6635080468	 0.131957
H	-0.2897298101	 1.879698862	 1.0311067836	 0.123814
H	-1.316351663	-0.3298005405	 1.4397541925	 0.230933
H	 0.9604124616	-0.7826543015	 2.0154233726	 0.114244
H	 0.8353335116	-2.7942243244	-1.9641162017	 0.121333
H	-0.6482314947	-2.5026334304	-0.9186482988	 0.157594
H	 1.3558471778	-0.306840615	-1.9087266387	 0.109373
H	 3.1015891933	-2.6153386597	-0.9099476767	 0.059895
91.8456	175.0231	206.2048	217.393	271.9168	326.2154	412.1268	453.5668	486.289	562.3845	619.0587	679.9719	738.7891	797.321	842.8476	866.8181	914.9707	936.2732	966.1904	985.6979	1000.5454	1005.7183	1049.8218	1077.1022	1107.1633	1116.83	1131.6188	1210.6661	1246.4062	1267.8004	1330.1546	1377.122	1413.5457	1432.1583	1447.8988	1466.025	1481.4502	1499.1993	1782.4084	2855.1377	3024.4573	3086.6051	3100.9822	3139.0792	3198.9239	3217.6783	3238.7056	3476.0034
CC12NC1C1(CC21)C=O	C[C@]12N[C@H]1[C@]1(C[C@@H]21)C=O	
InChI=1S/C7H9NO/c1-6-4-2-7(4,3-9)5(6)8-6/h3-5,8H,2H2,1H3	InChI=1S/C7H9NO/c1-6-4-2-7(4,3-9)5(6)8-6/h3-5,8H,2H2,1H3/t4-,5+,6+,7+/m0/s1
