16
gdb 33878	3.54594	1.51276	1.32008	1.2321	75.16	-0.232	0.0264	0.2584	974.8807	0.125116	-400.641857	-400.634957	-400.634013	-400.672942	28.378	
C	 0.0356163201	-1.1397599993	-0.0257645925	-0.40286
C	 0.0404230979	 0.0627760696	 0.0193856914	 0.204505
C	-0.0030846056	 1.4855493409	 0.0570570078	 0.191967
N	 0.3147818314	 2.3022225754	-1.1548228016	-0.374843
C	 1.1828143567	 2.3918417149	 0.0334054674	-0.105301
C	 0.7137836068	 3.4179712571	 1.0922866231	 0.061863
C	-0.7493854084	 3.73269775	 0.7080565847	-0.23598
C	-0.8436951896	 2.249501233	 1.1246228445	-0.005639
O	 0.1887562463	 2.5191673283	 2.1333522358	-0.299722
H	 0.043752915	-2.2012137246	-0.0546347974	 0.192599
H	 0.7566356564	 1.6852507469	-1.8361334295	 0.240552
H	 2.2016560699	 2.0261684996	 0.0074527859	 0.114818
H	 1.4270333522	 4.1539951274	 1.4599476463	 0.086816
H	-1.2134863488	 4.3689422143	 1.4603500251	 0.112458
H	-0.9943507007	 4.0292601615	-0.3087647935	 0.131861
H	-1.7365944495	 1.7644758651	 1.5140654426	 0.086905
132.7678	149.7686	352.1463	396.8907	475.4956	504.2984	543.9675	579.7194	592.0647	620.4126	665.3697	711.299	801.3879	855.2819	856.1366	870.7312	906.0474	915.8864	943.8691	988.6627	1014.8769	1033.3719	1070.9905	1097.1085	1149.4068	1191.6716	1229.3782	1236.3715	1252.909	1292.5428	1301.495	1332.7388	1398.426	1470.0192	2235.2582	3106.8893	3136.3563	3147.535	3182.6934	3199.3722	3476.0941	3502.0275
C#CC12NC1C1CC2O1	C#C[C@]12N[C@H]1[C@H]1C[C@@H]2O1	
InChI=1S/C7H7NO/c1-2-7-5-3-4(9-5)6(7)8-7/h1,4-6,8H,3H2	InChI=1S/C7H7NO/c1-2-7-5-3-4(9-5)6(7)8-7/h1,4-6,8H,3H2/t4-,5+,6+,7-/m1/s1
