18
gdb 84575	2.62249	2.00521	1.50838	3.047	74.95	-0.2304	0.0191	0.2495	916.0885	0.150736	-401.902345	-401.89559	-401.894646	-401.933179	28.332	
O	 0.1119917127	 1.455727413	-0.0329482446	-0.440398
C	 0.0438688618	 0.0392175587	-0.0341817054	 0.0785
C	 0.7013453637	-0.5638976928	 1.1985161113	-0.098684
C	-0.1307278202	-1.2657364432	 1.968639451	-0.076115
C	-1.5059773144	-1.3402839005	 1.3735806201	-0.06688
C	-2.6139800733	-0.3538200308	 1.8323578912	-0.069592
N	-2.0536316678	 1.0185945017	 1.7826674045	-0.344554
C	-2.5377197132	 0.374940159	 0.5353037343	-0.050781
C	-1.4023990295	-0.5387411726	 0.0322845057	-0.070433
H	-0.351044993	 1.7217839953	 0.7765029108	 0.289885
H	 0.5527516437	-0.2674513522	-0.9551701015	 0.079663
H	 1.7427088084	-0.3564067532	 1.4227190091	 0.096046
H	 0.1319884676	-1.7229943585	 2.9169117396	 0.093156
H	-1.9018837114	-2.3538231406	 1.2670001638	 0.079078
H	-3.4661678672	-0.5651018821	 2.466496071	 0.094577
H	-2.78574934	 1.6511538608	 2.1015664828	 0.234895
H	-3.3182005653	 0.8412265587	-0.0524654464	 0.096437
H	-1.6821944525	-1.1082934909	-0.8542668074	 0.075204
146.1718	216.678	277.7567	341.2039	469.1065	522.5874	601.1345	611.3339	667.6725	734.209	777.8792	784.4619	811.9298	823.9138	850.7911	910.069	918.7485	966.5057	976.3257	988.0448	1025.7103	1042.9632	1049.5552	1079.0679	1100.849	1116.3413	1136.5417	1175.1523	1223.6345	1238.8116	1274.4493	1296.0215	1302.3867	1312.3741	1346.3986	1368.0415	1379.061	1472.4601	1673.2635	3038.6139	3071.6559	3108.1712	3174.3873	3184.4754	3198.6896	3200.2513	3485.5216	3693.9076
OC1C=CC2C3NC3C12	O[C@H]1C=C[C@H]2[C@H]3N[C@H]3[C@@H]12	
InChI=1S/C7H9NO/c9-4-2-1-3-5(4)7-6(3)8-7/h1-9H	InChI=1S/C7H9NO/c9-4-2-1-3-5(4)7-6(3)8-7/h1-9H/t3-,4+,5-,6-,7+/m1/s1
