20
gdb 85956	3.02637	1.15744	1.03703	5.3234	74.75	-0.241	0.0237	0.2647	1242.7192	0.170394	-440.316779	-440.307501	-440.306557	-440.351097	34.715	
C	-0.6152144891	 1.2421385526	 0.9882099748	-0.410927
C	 0.0460266097	-0.0874510984	 0.6610006077	 0.090741
C	 0.8278150459	-0.1627144451	-0.6778242613	-0.310565
C	 2.1314449921	-0.3202966895	 0.1669880078	 0.191772
C	 3.1331335631	 0.822508745	 0.0685056291	-0.460436
N	 1.306720318	-0.3803661807	 1.4147163462	-0.400319
H	 1.5484963803	 0.3193619897	 2.1100840583	 0.222883
H	 1.9759549729	-2.1186711709	 1.4917134471	 0.303394
C	 2.8420757453	-1.6649247757	-0.0744737341	 0.406378
O	 3.5505546625	-1.8680892054	-1.0260045517	-0.358076
O	 2.5768143644	-2.5828191205	 0.8610743078	-0.375265
H	 0.0748692873	 2.0802167145	 0.8399947353	 0.12023
H	-1.4860863974	 1.40475874	 0.3444683277	 0.130068
H	-0.9611215611	 1.2629091996	 2.0277752176	 0.124869
H	-0.6804485301	-0.8962985426	 0.7949888181	 0.088166
H	 0.5881289834	-1.0140903686	-1.3160612286	 0.127177
H	 0.7967755365	 0.7487840501	-1.278831085	 0.112995
H	 2.6309707474	 1.7931782071	 0.1242160056	 0.112269
H	 3.8710783511	 0.7661172196	 0.8769011973	 0.125963
H	 3.6703968478	 0.7523978392	-0.8801699897	 0.158684
48.6978	92.236	178.808	234.1932	247.0891	250.9414	307.288	326.096	365.4273	429.3175	496.3598	556.7595	690.0384	755.5228	781.0022	792.888	867.8397	894.9032	907.133	921.7129	934.9278	965.3598	1002.7311	1078.5428	1110.9251	1176.3804	1180.2585	1193.4235	1198.1488	1255.5287	1266.1815	1312.2023	1346.5026	1399.6418	1403.2728	1411.2652	1445.2205	1484.6554	1488.0582	1492.1084	1495.0063	1499.3299	1860.6192	3026.7544	3033.4329	3037.9776	3075.1248	3096.6527	3100.201	3103.2376	3132.5763	3133.5557	3396.6953	3513.6477
CC1CC(C)([NH2+]1)C([O-])=O	C[C@H]1C[C@@](C)(N1)C(=O)O	
InChI=1S/C6H11NO2/c1-4-3-6(2,7-4)5(8)9/h4,7H,3H2,1-2H3,(H,8,9)	InChI=1S/C6H11NO2/c1-4-3-6(2,7-4)5(8)9/h4,7H,3H2,1-2H3,(H,8,9)/t4-,6+/m0/s1
