20
gdb 46315	2.95114	1.29618	1.18643	2.4529	79.27	-0.259	0.0318	0.2908	1144.0238	0.17327	-403.167312	-403.159207	-403.158262	-403.201142	31.011	
N	-0.0231290235	 1.2340717634	-0.3413750145	-0.551649
C	 0.000351355	 0.0191907224	-0.0308821362	 0.393608
O	 1.0254625237	-0.7715182745	 0.4402166283	-0.260996
C	 0.1498907894	-1.943130757	 0.4774029877	-0.140758
C	-1.0357278886	-1.0919880674	-0.0402947713	 0.215197
C	-2.2438284038	-0.9085894722	 0.9163706293	-0.273219
C	-3.4619147475	-0.7232640343	-0.0035435285	-0.203676
C	-3.1500883308	-1.6579867297	-1.1803552511	-0.202736
C	-1.649584085	-1.4179102426	-1.4307177971	-0.285022
H	 0.8867687242	 1.6769406403	-0.2039942451	 0.226028
H	 0.5174311216	-2.7241084238	-0.1941646474	 0.115804
H	 0.0595926147	-2.3274613846	 1.4972564219	 0.114616
H	-2.3661659806	-1.8221332973	 1.5112608342	 0.098781
H	-2.0969788388	-0.0803972127	 1.6137050707	 0.115198
H	-4.4077963784	-0.9490815848	 0.4966757231	 0.095631
H	-3.5095159253	 0.3142803169	-0.3537262582	 0.118491
H	-3.3268816056	-2.6998192566	-0.884842123	 0.095684
H	-3.7598890457	-1.4627512683	-2.0666317717	 0.100178
H	-1.5168789426	-0.5458993381	-2.0790180282	 0.13062
H	-1.1506560624	-2.2621909288	-1.9146285727	 0.098221
23.1998	114.2885	173.5837	257.2867	275.1824	342.8363	429.2236	518.4157	564.2157	672.3804	707.4232	758.3888	841.269	848.3046	861.3675	877.1366	916.4547	920.6701	963.0818	988.0819	993.8436	1015.1148	1027.4214	1073.9461	1137.6636	1151.2654	1174.8998	1206.7549	1221.5373	1245.3812	1262.5252	1269.3393	1320.1369	1344.6573	1345.5587	1359.5504	1373.3358	1480.7362	1485.44	1492.1905	1509.0574	1516.1527	1818.7952	3028.6014	3030.019	3044.4491	3048.6885	3052.1531	3089.0103	3093.8694	3100.0915	3105.1781	3109.2378	3477.2573
N=C1OCC11CCCC1	[NH][C]1OCC21CCCC2	
InChI=1S/C7H11NO/c8-6-7(5-9-6)3-1-2-4-7/h8H,1-5H2	InChI=1S/C7H11NO/c8-6-7(5-9-6)3-1-2-4-7/h8H,1-5H2
