20
gdb 96304	2.09076	1.53332	0.95988	2.815	75.46	-0.2383	0.0304	0.2687	1230.0575	0.173131	-440.331426	-440.322774	-440.32183	-440.364714	33.442	
O	-0.1194370455	 1.4553062647	-0.0270901178	-0.436074
C	 0.0074277997	 0.0386423212	 0.0200037236	 0.1223
C	-1.4271960019	-0.4861273244	 0.0942017611	-0.183432
C	-1.5790810239	-2.0058486118	 0.2166470548	-0.202023
C	-0.9953870874	-2.7986658438	-0.9624153407	-0.166674
N	 0.4571923305	-2.8936827321	-0.9606618745	-0.284341
C	 1.3634695158	-1.875225181	-1.0495216251	 0.358994
O	 2.5626128355	-2.0844707698	-0.9894792976	-0.368741
C	 0.7950990886	-0.469430504	-1.2074028342	-0.325343
H	 0.7652656865	 1.8344327867	-0.0377806246	 0.283832
H	 0.5513363654	-0.2623419842	 0.9309193692	 0.076714
H	-1.9122940008	 0.0014445995	 0.9461021371	 0.11019
H	-1.9538644586	-0.1353485336	-0.8034301255	 0.104183
H	-1.1167858472	-2.36711909	 1.1435465509	 0.104913
H	-2.648500467	-2.2375319941	 0.2867830922	 0.102829
H	-1.3713977022	-3.824733052	-0.9329874043	 0.113527
H	-1.3512043346	-2.3672857235	-1.9089004491	 0.113922
H	 0.8794643772	-3.8003142985	-0.8290697401	 0.246252
H	 0.1586437496	-0.3984598464	-2.0981877522	 0.11417
H	 1.6643600102	 0.1728424571	-1.3683743232	 0.114802
75.241	132.9698	182.8144	286.9191	299.3489	309.2907	356.6019	388.6644	439.9969	489.3953	504.7251	533.8413	602.4627	689.946	804.9295	846.8453	862.9925	908.2093	943.644	978.6772	1020.5937	1079.5526	1083.4845	1100.132	1136.9022	1175.7459	1209.8259	1255.5962	1287.3699	1293.3424	1314.9512	1353.5469	1369.4887	1390.2248	1391.289	1413.8879	1436.7352	1463.8991	1472.6069	1481.0282	1494.9997	1504.812	1783.0079	2961.9999	3006.3944	3024.5591	3028.328	3038.2267	3070.4385	3080.6421	3090.3367	3104.8578	3622.1053	3817.2598
OC1CCCNC(=O)C1	O[C@H]1CCCNC(=O)C1	
InChI=1S/C6H11NO2/c8-5-2-1-3-7-6(9)4-5/h5,8H,1-4H2,(H,7,9)	InChI=1S/C6H11NO2/c8-5-2-1-3-7-6(9)4-5/h5,8H,1-4H2,(H,7,9)/t5-/m0/s1
