18
gdb 30749	3.09911	1.25239	0.93922	0.573	76.54	-0.1813	0.0373	0.2186	1264.3937	0.146763	-439.099903	-439.090307	-439.089363	-439.134491	34.315	
C	-0.4214446907	 1.1676925142	 0.1596856359	-0.252003
O	 0.5248283444	 0.1322295815	-0.1318999744	-0.27574
C	 0.9170663343	-0.5976644882	 0.9256528317	 0.355924
C	 0.7934568598	-1.9283756762	 1.1807687995	-0.003024
N	 0.0821108615	-2.8890049099	 0.4353625746	-0.618294
C	 1.4682024783	-2.1538773552	 2.4371245804	 0.2294
C	 1.6009035021	-3.4636022557	 3.1460263221	-0.50905
C	 1.9288291134	-0.9373130238	 2.8303504715	-0.123224
O	 1.6038179915	 0.0314546146	 1.9258258285	-0.189632
H	 0.012539729	 1.9142824201	 0.8322718377	 0.136711
H	-0.6705065179	 1.6357218474	-0.794326199	 0.131617
H	-1.3263193828	 0.7492112292	 0.6164275458	 0.122796
H	-0.2028329257	-2.50737601	-0.4595680452	 0.243583
H	 0.6354501804	-3.7212573547	 0.262246042	 0.240755
H	 2.1950550617	-4.1834403068	 2.5685123694	 0.12072
H	 2.0902653858	-3.3393483478	 4.1159162315	 0.124983
H	 0.6205963337	-3.9232883655	 3.3162048816	 0.136435
H	 2.4788964411	-0.6067390933	 3.6958963262	 0.128044
61.7438	124.0458	143.1664	155.0995	214.5847	222.4629	242.6568	296.1321	330.9322	415.0079	541.2723	560.9963	627.6663	685.5963	706.901	734.427	750.8501	835.9167	951.506	1009.5785	1052.4862	1064.8448	1153.0549	1163.5165	1179.3469	1214.076	1224.9146	1299.1172	1321.7869	1418.3177	1442.2806	1480.4583	1482.518	1486.5891	1503.5656	1505.35	1617.5528	1647.8707	1723.1062	3019.4911	3021.3852	3069.3147	3095.4912	3110.6187	3137.9775	3273.1908	3507.3002	3595.3254
COC1=C(N)C(C)=CO1	COc1c(N)c(C)co1	
InChI=1S/C6H9NO2/c1-4-3-9-6(8-2)5(4)7/h3H,7H2,1-2H3	InChI=1S/C6H9NO2/c1-4-3-9-6(8-2)5(4)7/h3H,7H2,1-2H3
