13
gdb 42331	5.65936	0.66234	0.61797	2.8904	82.69	-0.2797	-0.1138	0.1659	1682.2562	0.088989	-415.572482	-415.564098	-415.563154	-415.606702	28.765	
O	-0.0443981365	 0.1325426671	-0.5449243316	-0.303607
C	-0.0024625198	 1.3262565752	-0.3177037953	 0.205822
C	 1.2661627412	 2.0066288984	-0.1131139536	 0.026458
C	 2.3232985136	 2.571048215	 0.0530320169	 0.135744
C	 3.515733726	 3.2080682396	 0.2396395733	 0.216408
N	 4.5283221664	 3.7543286384	 0.3984458645	-0.314889
C	-1.2217624559	 2.1778022835	-0.2373132597	-0.11733
C	-2.1866911952	 2.0432222135	-1.384687604	-0.215423
N	-2.5073993493	 1.4882644948	-0.0814878546	-0.29381
H	-1.1202921474	 3.1331976004	 0.266931247	 0.121023
H	-2.75642794	 2.9198984053	-1.6772742461	 0.140669
H	-1.9031043736	 1.3694031041	-2.1881897055	 0.142696
H	-2.3181888297	 0.4852023349	-0.0896473213	 0.256239
60.2828	69.6007	130.1173	209.4032	249.8501	279.1275	332.9753	387.7224	534.4705	584.6207	587.627	753.8024	758.241	837.7596	874.8684	942.211	995.6581	1018.993	1117.4044	1129.173	1172.4273	1192.8495	1286.7999	1313.5707	1397.9255	1497.5385	1737.4442	2252.686	2386.2331	3117.6107	3170.8078	3213.8421	3468.229
O=C(C#CC#N)C1CN1	O=C(C#CC#N)[C@H]1CN1	
InChI=1S/C6H4N2O/c7-3-1-2-6(9)5-4-8-5/h5,8H,4H2	InChI=1S/C6H4N2O/c7-3-1-2-6(9)5-4-8-5/h5,8H,4H2/t5-/m1/s1
