19
gdb 107873	3.6093	1.20342	1.06887	2.1936	75.14	-0.2369	0.0675	0.3044	1186.1906	0.158105	-422.930632	-422.922323	-422.921379	-422.963514	32.091	
C	-0.08095177	 1.6313167199	-0.002577281	-0.418712
C	-0.0654773585	 0.1096683527	 0.0105553952	-0.018469
C	 1.0562122066	-0.6359166006	-0.752411716	-0.140165
C	 2.0773514921	-0.4505141601	 0.4107885556	 0.079001
O	 2.4401034797	-1.8614470958	 0.4911988387	-0.379751
C	 0.9932239311	-1.8559415744	 0.2256139784	 0.457724
C	 0.3453307523	-3.1974213346	 0.079085885	-0.205601
O	 0.9403720959	-3.9294645927	-0.9763254208	-0.415067
C	 0.7036521351	-0.6220466456	 1.1383263265	-0.164909
H	 0.9144578037	 2.0484869397	 0.1836334684	 0.114652
H	-0.4253760455	 2.0122847682	-0.9701176908	 0.120145
H	-0.7556091255	 2.0251052989	 0.7653997645	 0.118913
H	-1.0692743886	-0.2901005785	-0.1742803302	 0.072219
H	 1.2802070038	-0.6721726295	-1.8184835186	 0.086415
H	 2.863476662	 0.2891027448	 0.5526754866	 0.097955
H	 0.4158069045	-3.7355989207	 1.0380508014	 0.100523
H	-0.7166172686	-3.079699683	-0.1619068955	 0.117897
H	 1.8944858572	-3.8562070272	-0.8529121692	 0.296316
H	 0.5332595026	-0.6351152817	 2.2155911917	 0.080916
82.6752	141.3491	187.2472	213.8342	272.0029	301.9227	363.6206	418.3803	539.8647	582.5014	670.9611	733.8937	766.825	786.5768	827.5799	842.5559	881.455	926.9107	948.3547	1020.1071	1043.9316	1058.4045	1063.6767	1080.6209	1090.2957	1126.7771	1135.1695	1166.513	1167.4569	1216.0555	1242.6688	1262.8163	1281.2662	1361.7258	1376.7722	1398.2968	1415.8668	1444.3214	1491.472	1492.7761	1500.5245	2979.5366	3028.981	3037.0443	3074.7117	3093.7865	3098.7741	3111.8634	3120.9356	3137.1358	3791.3962
CC1C2C3OC2(CO)C13	C[C@H]1[C@H]2[C@@H]3O[C@@]2(CO)[C@H]13	
InChI=1S/C7H10O2/c1-3-4-6-5(3)7(4,2-8)9-6/h3-6,8H,2H2,1H3	InChI=1S/C7H10O2/c1-3-4-6-5(3)7(4,2-8)9-6/h3-6,8H,2H2,1H3/t3-,4-,5+,6-,7+
