17
gdb 125897	4.45027	1.21042	0.98872	4.451	74.93	-0.2465	-0.0351	0.2114	1170.0762	0.136801	-417.998969	-417.991272	-417.990328	-418.031187	29.189	
C	-0.667091306	 1.3141840476	-0.0226576861	-0.404661
C	 0.1813543225	 0.0457055531	 0.0152615909	 0.040301
C	 1.1633558082	-0.0891923415	-1.2072497244	-0.369685
C	 2.3267474989	-0.7704419136	-0.5675066509	 0.383062
C	 2.2597177134	-0.77802509	 0.7898345495	 0.231259
C	 1.0401850268	-0.1039354515	 1.3278899597	-0.362819
N	 3.3993201246	-1.3821541916	 1.2394742671	-0.185225
N	 4.1358814155	-1.7441132892	 0.3050415087	-0.043711
O	 3.4241559758	-1.3290479923	-0.9997731365	-0.25891
H	-0.036947781	 2.210132129	 0.0133415122	 0.121344
H	-1.267739539	 1.3637859336	-0.9368734365	 0.120796
H	-1.3534656916	 1.3546699116	 0.8292682142	 0.123093
H	-0.4849121536	-0.8232076732	-0.0242086751	 0.096007
H	 0.7229738365	-0.6483959522	-2.0375106307	 0.133591
H	 1.4599431421	 0.892061977	-1.6004110701	 0.132202
H	 1.2713366518	 0.8769718269	 1.7631007674	 0.118868
H	 0.5054712949	-0.6764027037	 2.0911920807	 0.124488
78.8767	228.7674	243.1917	245.8366	265.0279	294.5498	411.9489	468.9814	512.8706	653.0709	691.359	719.7366	771.312	804.9785	902.679	926.8367	951.662	976.9084	1050.7473	1109.103	1118.4165	1151.9229	1194.2416	1222.5595	1258.4002	1271.6774	1339.7946	1362.1891	1370.8346	1417.2582	1464.3279	1479.2532	1486.075	1497.9029	1499.2733	1505.0681	1606.2021	3022.8583	3026.6844	3030.4779	3040.6581	3082.0661	3088.588	3100.2924	3103.0723
CC1CC2=C(C1)N=NO2	C[C@H]1Cc2c(C1)nno2	
InChI=1S/C6H8N2O/c1-4-2-5-6(3-4)9-8-7-5/h4H,2-3H2,1H3	InChI=1S/C6H8N2O/c1-4-2-5-6(3-4)9-8-7-5/h4H,2-3H2,1H3/t4-/m1/s1
