17
gdb 76000	2.63377	1.19303	1.07111	3.5175	81.71	-0.238	0.0031	0.241	1192.1629	0.13379	-380.834	-380.824187	-380.823243	-380.868329	35.797	
C	-0.1308012195	 1.5415210348	-0.0613475773	-0.457658
C	-0.0361506813	 0.0258896005	-0.0466843792	 0.066088
C	-1.1477229012	-0.6585693942	 0.5525892112	 0.267822
C	-2.0851577759	-1.2365245976	 1.0373775998	-0.423444
C	 0.6888794659	-0.711696385	-1.1861157447	-0.011243
N	 1.3153494198	-0.0785570225	-2.3005601028	-0.523384
C	 1.341985504	-0.6509609121	 0.178392161	-0.249169
C	 2.497449314	 0.1777358127	 0.3622651916	 0.304901
N	 3.4230636399	 0.8628217209	 0.4825869189	-0.347162
H	 0.7119981619	 1.9911544534	-0.5892370907	 0.126807
H	-1.0545515297	 1.8494489996	-0.5597496152	 0.132942
H	-0.1455780087	 1.9398908217	 0.9567000948	 0.145083
H	-2.9133729929	-1.7414413032	 1.4696326601	 0.200304
H	 0.2575143695	-1.6798896535	-1.4247872617	 0.121356
H	 0.6410056658	 0.3463095155	-2.9270258068	 0.243863
H	 1.9955582102	 0.6210242351	-2.0274219411	 0.254991
H	 1.3415613182	-1.5581047459	 0.7711973319	 0.147903
106.4623	123.3208	142.4667	156.533	172.6277	187.5628	260.305	331.4957	385.1486	456.6075	488.9238	525.841	569.5653	597.689	623.1864	658.0554	698.9633	760.392	810.7642	861.2582	942.732	982.8011	1037.156	1090.3582	1120.5317	1180.9228	1213.4882	1274.585	1293.3873	1350.7265	1411.9506	1435.3438	1481.8859	1498.6905	1656.1257	2231.303	2344.56	3050.637	3117.8113	3137.3299	3148.4569	3185.5261	3501.6645	3517.3621	3604.5126
CC1(C#C)C(N)C1C#N	C[C@@]1(C#C)[C@@H](N)[C@H]1C#N	
InChI=1S/C7H8N2/c1-3-7(2)5(4-8)6(7)9/h1,5-6H,9H2,2H3	InChI=1S/C7H8N2/c1-3-7(2)5(4-8)6(7)9/h1,5-6H,9H2,2H3/t5-,6+,7+/m1/s1
