15
gdb 33691	3.97923	1.49251	1.39306	5.2294	72.99	-0.2528	0.0047	0.2575	930.9241	0.115051	-379.625329	-379.619094	-379.61815	-379.655896	25.378	
N	 0.0564475163	-1.124978192	-0.054427114	-0.350529
C	 0.0329363961	 0.0314509293	-0.0265627879	 0.158038
C	-0.0495848435	 1.4527513348	 0.0104935222	 0.267372
C	-1.2041939702	 2.3088917226	 0.6185526272	-0.142799
C	-0.506389204	 3.5944772252	 0.9898344509	-0.09124
C	 0.9853826845	 3.3321109825	 1.0682531262	-0.179934
N	 1.1668846105	 2.2979853236	 0.0368627808	-0.151168
C	 0.1857868411	 2.5072403244	-1.0307729651	-0.121486
C	-0.9609339055	 3.3686711702	-0.4352509258	-0.087664
H	-2.1257382896	 1.9328257375	 1.0359080145	 0.115528
H	-1.0105662471	 4.3225035529	 1.6124573383	 0.107215
H	 1.5918256118	 4.205460245	 0.8107819203	 0.121761
H	 1.3068819232	 2.9428347523	 2.0382371629	 0.125474
H	 0.4832921666	 2.4099172904	-2.066236252	 0.1222
H	-1.6662631302	 3.9769598015	-0.9806557986	 0.107231
144.6201	165.4251	400.3646	479.1491	498.7122	543.6461	604.1681	725.652	757.0237	765.9396	784.1283	834.4645	844.2383	861.7476	900.504	947.2644	987.9526	998.1733	1011.9293	1028.0547	1052.558	1058.0712	1088.2571	1132.4432	1212.7915	1221.5043	1231.2562	1256.8927	1302.7675	1347.1214	1400.9247	1495.1373	2353.3538	3061.9792	3112.1755	3205.8389	3210.6458	3232.0737	3242.7897
N#CC12C3C4CN1C2C34	N#C[C@@]12[C@H]3[C@H]4CN1[C@@H]2[C@@H]34	
InChI=1S/C7H6N2/c8-2-7-5-3-1-9(7)6(7)4(3)5/h3-6H,1H2	InChI=1S/C7H6N2/c8-2-7-5-3-1-9(7)6(7)4(3)5/h3-6H,1H2/t3-,4+,5-,6+,7-,9?/m0/s1
