17
gdb 84462	4.08647	1.19203	1.0449	3.6721	79.35	-0.2563	-0.0175	0.2388	1154.8932	0.137228	-380.868839	-380.860968	-380.860024	-380.901064	30.344	
C	-0.0781127456	 1.5851826738	 0.0528343703	-0.396844
C	 0.0241052601	 0.053470578	-0.0047674446	-0.040004
C	 0.8135358701	-0.4676762012	-1.1939839362	-0.07434
C	 1.8001714077	-1.2958750899	-0.8518227021	-0.142237
C	 1.868252263	-1.4267411858	 0.6383047762	 0.199987
N	 2.1704866178	-0.1211502867	 1.3110443838	-0.353688
C	 0.7729576351	-0.5568326567	 1.1832957299	-0.106227
C	 2.2767593464	-2.6470312326	 1.2728472249	 0.188354
N	 2.6229354858	-3.6275203745	 1.780748481	-0.340913
H	 0.9168681737	 2.0268167714	 0.1464484056	 0.14517
H	-0.5507750321	 1.977340307	-0.8528046276	 0.118114
H	-0.6810640638	 1.9032203849	 0.9091253101	 0.117904
H	-0.9927511548	-0.3633015197	-0.0316557888	 0.094193
H	 0.5942337027	-0.1493405282	-2.2071914203	 0.109512
H	 2.49612976	-1.791779939	-1.5152971605	 0.120735
H	 2.4865745825	-0.3058093377	 2.2627029755	 0.247378
H	 0.2321347415	-0.8401590131	 2.0795649426	 0.112908
116.2731	141.4048	200.8827	234.3968	271.0304	394.7392	435.7535	483.5608	559.8654	584.1419	608.4926	701.4483	757.0715	797.3069	826.6092	860.5085	926.324	952.4209	966.5282	1003.1521	1039.7818	1078.9146	1095.1703	1118.0573	1143.6603	1167.0461	1263.5863	1281.83	1322.7324	1338.8476	1361.2247	1398.2596	1421.4756	1496.0508	1504.5358	1668.0198	2349.5556	3006.3254	3041.6028	3107.3092	3130.9585	3176.5389	3194.6193	3229.9929	3478.1723
CC1C=CC2(NC12)C#N	C[C@H]1C=C[C@]2(N[C@@H]12)C#N	
InChI=1S/C7H8N2/c1-5-2-3-7(4-8)6(5)9-7/h2-3,5-6,9H,1H3	InChI=1S/C7H8N2/c1-5-2-3-7(4-8)6(5)9-7/h2-3,5-6,9H,1H3/t5-,6-,7-/m0/s1
