19
gdb 101885	5.89233	0.57954	0.54429	2.8489	75.35	-0.2611	0.0203	0.2814	1965.0562	0.155702	-460.102873	-460.092276	-460.091332	-460.139616	37.238	
O	 0.0305402937	 1.4104294502	-0.1958243835	-0.427368
C	 0.0952142237	 0.0054724376	-0.0776257403	-0.048267
C	-1.2930191388	-0.5872730319	 0.1408097811	 0.089442
O	-2.0762569438	-0.1628024978	-0.9678386813	-0.453366
C	-1.2923737341	-2.1071285917	 0.2302120626	-0.074622
O	-2.6514612085	-2.5010713365	 0.3278106498	-0.263567
C	-2.8297609121	-3.9055072243	 0.280907729	-0.2046
C	-4.2486570082	-4.2270509236	 0.3442062485	 0.27476
C	-5.4129870803	-4.5158280195	 0.3928883881	-0.408029
H	-0.6806871558	 1.5869865204	-0.8237713608	 0.294577
H	 0.5422513496	-0.4547108353	-0.9746216037	 0.087516
H	 0.7419408971	-0.2187204129	 0.7772443433	 0.1051
H	-1.7089276383	-0.1803235703	 1.0759858428	 0.084074
H	-2.9228565637	-0.6191573082	-0.8968014673	 0.297173
H	-0.8340754446	-2.5394386526	-0.6739302152	 0.097235
H	-0.720860152	-2.4516811085	 1.1070846693	 0.095472
H	-2.3943063367	-4.3161331008	-0.6455385739	 0.124709
H	-2.3001478677	-4.3858973765	 1.1204017866	 0.124661
H	-6.4439007596	-4.7674232376	 0.437938685	 0.205099
39.6736	75.193	79.4986	128.7605	156.1538	180.2378	282.5877	311.7573	333.1306	371.1582	408.7783	451.9836	480.6995	557.9735	589.2508	614.1521	682.7628	874.298	927.893	975.6962	999.4974	1030.9943	1062.6945	1083.3941	1126.7315	1135.761	1148.3016	1208.4653	1251.6145	1263.7676	1281.2868	1331.7336	1378.5789	1393.0794	1428.2371	1441.7165	1454.6589	1493.1292	1500.2762	1515.6234	2249.3254	2959.0161	2964.848	2971.0945	2982.009	2986.2316	3011.7277	3074.7218	3505.3645	3789.7516	3800.1555
OCC(O)COCC#C	OC[C@@H](O)COCC#C	
InChI=1S/C6H10O3/c1-2-3-9-5-6(8)4-7/h1,6-8H,3-5H2	InChI=1S/C6H10O3/c1-2-3-9-5-6(8)4-7/h1,6-8H,3-5H2/t6-/m1/s1
