20
gdb 36642	5.52232	0.72179	0.71028	4.2181	84.52	-0.3047	0.0385	0.3432	1611.9602	0.172559	-365.978329	-365.970053	-365.969109	-366.012214	31.311	
N	-0.1576693396	-1.1672030936	-0.3393684181	-0.305859
C	-0.0966315529	-0.0232218365	-0.1871260427	 0.257033
C	 0.0057499776	 1.4220711201	 0.000656368	-0.335059
C	 1.4449635307	 1.9484000695	-0.1932522838	-0.253285
C	 1.5002124875	 3.4635739162	-0.0487970952	 0.065561
C	 1.429256885	 4.1773873952	 1.3452906989	-0.050054
C	 2.901819768	 3.739134862	 1.5987512513	-0.222606
C	 2.8556466888	 4.2240408696	 0.1190956698	-0.067607
C	 2.0150130255	 5.4301339303	 0.6311749831	-0.21726
H	-0.6757685735	 1.9125188797	-0.7044923275	 0.150749
H	-0.3545341852	 1.6681728375	 1.0060622367	 0.154205
H	 2.1038823487	 1.4408797532	 0.5153692992	 0.122508
H	 1.7906659202	 1.667938012	-1.1949113151	 0.121516
H	 0.8411116448	 3.9218608988	-0.7979401986	 0.062864
H	 0.6027915629	 4.1577456751	 2.0582907776	 0.069569
H	 3.4745996769	 4.362947586	 2.2898878407	 0.094914
H	 3.0979293519	 2.6824663624	 1.7848642858	 0.095661
H	 3.6815445042	 4.2520954049	-0.5935870191	 0.07304
H	 1.3711654414	 5.9281800319	-0.0991311113	 0.090594
H	 2.536689857	 6.1502869857	 1.2662402503	 0.093515
62.3046	73.1303	105.5262	209.7244	322.0718	356.2788	403.3964	496.5073	566.5416	616.0529	737.662	780.2787	801.3855	846.1842	877.9616	901.2095	904.5176	961.373	1000.4299	1007.95	1023.784	1031.9931	1042.612	1094.9796	1104.362	1114.1926	1144.8505	1158.9727	1189.8767	1201.4691	1217.1598	1242.5588	1250.6162	1273.6817	1290.1477	1318.5667	1369.577	1432.3652	1468.455	1488.8279	1507.3133	1544.5856	2361.692	3015.0126	3038.7207	3048.5259	3051.3561	3064.4501	3076.1157	3091.6235	3101.3728	3105.0467	3119.1226	3130.0625
N#CCCC1C2CC1C2	N#CCC[C@H]1[C@H]2C[C@@H]1C2	
InChI=1S/C8H11N/c9-3-1-2-8-6-4-7(8)5-6/h6-8H,1-2,4-5H2	InChI=1S/C8H11N/c9-3-1-2-8-6-4-7(8)5-6/h6-8H,1-2,4-5H2/t6-,7+,8-
