21
gdb 113488	4.3904	0.95286	0.86943	1.6781	84.15	-0.2422	0.0256	0.2678	1416.3941	0.181955	-387.093809	-387.084855	-387.083911	-387.128084	33.805	
C	 0.3224864065	 1.4443120214	 0.1896124308	-0.374874
C	-0.3247037545	 0.1057079736	-0.1860846377	-0.215566
C	 0.3244519133	-0.5159477216	-1.399557965	-0.002456
O	 1.6279790803	-1.0900724863	-1.2168961244	-0.294551
C	 0.541377142	-1.9577563704	-1.5739693617	 0.407129
C	 0.1414488659	-3.0290188634	-0.5488549366	-0.338406
C	 0.2272969423	-4.3090838191	-1.342056565	-0.068162
C	 0.4892301464	-4.0950709311	-2.6307989455	-0.064289
C	 0.6296439807	-2.6289594773	-2.9525897004	-0.34067
H	 1.386396001	 1.3069720139	 0.4043144451	 0.134485
H	 0.2361194616	 2.1698767298	-0.6266809094	 0.114487
H	-0.1521078349	 1.8784232776	 1.0745091513	 0.11218
H	-0.2577558183	-0.5893134018	 0.6570148805	 0.104358
H	-1.3926577745	 0.2506693608	-0.3969309452	 0.098103
H	 0.2427897678	 0.0850123014	-2.3104396286	 0.076328
H	 0.8243158088	-3.0072048835	 0.3080892812	 0.122782
H	-0.869695816	-2.8658810194	-0.1511465084	 0.109874
H	 0.078110676	-5.2819665669	-0.8874014468	 0.093207
H	 0.5857380087	-4.8674639427	-3.3854896699	 0.093575
H	-0.1634441985	-2.283054706	-3.6297443259	 0.108816
H	 1.5840339453	-2.3784067791	-3.4305056085	 0.123653
48.6983	80.0953	139.7705	176.3295	251.8529	302.1636	376.1251	404.5587	422.6094	489.1314	593.7792	694.7806	748.7431	782.2795	788.1632	818.7136	908.2895	937.1225	944.4649	957.9083	980.4013	981.2565	1036.5964	1044.3091	1055.7445	1123.5516	1131.8978	1153.3747	1160.3973	1203.7907	1214.3927	1280.7104	1287.0249	1292.271	1341.8133	1366.905	1376.9529	1407.092	1470.0153	1472.1955	1474.4761	1496.3803	1499.4981	1510.0173	1688.6001	3011.6339	3013.5521	3024.5763	3035.561	3056.6775	3057.032	3059.8751	3079.0658	3105.4051	3116.3746	3184.6324	3209.3788
CCC1OC11CC=CC1	CC[C@H]1O[C@]21CC=CC2	
InChI=1S/C8H12O/c1-2-7-8(9-7)5-3-4-6-8/h3-4,7H,2,5-6H2,1H3	InChI=1S/C8H12O/c1-2-7-8(9-7)5-3-4-6-8/h3-4,7H,2,5-6H2,1H3/t7-/m1/s1
