22
gdb 22783	2.12417	1.27189	0.8847	0.66	86.27	-0.241	0.0072	0.2481	1402.6293	0.192352	-404.309544	-404.299307	-404.298363	-404.345119	37.767	
C	-0.3133249133	 1.4362131242	 0.0934168318	-0.384572
C	 0.0576282569	-0.0486640374	 0.0338978284	-0.184202
C	 0.729601682	-0.4528382159	-1.2786262097	-0.056007
C	 1.0892942333	-1.961114377	-1.4860758643	-0.271386
C	 0.3667214754	-1.9581737368	-2.8739819153	-0.069375
C	-0.6643938045	-3.0500360367	-3.1477980056	-0.397904
C	-0.1256914642	-0.5585707103	-2.5329412089	 0.401096
N	-0.9658113323	 0.2641485949	-3.0049429551	-0.243941
O	-1.5709214665	-0.2324758194	-4.1803132645	-0.395015
H	 0.5778244061	 2.0679029707	 0.0040468585	 0.109188
H	-0.9909369463	 1.697792891	-0.7238270283	 0.143996
H	-0.8026068966	 1.6826958905	 1.0410463929	 0.106402
H	 0.7361900376	-0.2997108565	 0.8599075102	 0.094072
H	-0.8414779031	-0.6617490119	 0.1754890253	 0.093705
H	 1.5992691496	 0.1930728157	-1.4568764642	 0.087555
H	 2.1524949794	-2.2078887987	-1.4923052602	 0.100413
H	 0.5829926985	-2.6069839578	-0.7623627287	 0.103145
H	 1.0854465066	-1.9137080838	-3.7017339657	 0.094813
H	-1.4085788832	-3.095147486	-2.3456973638	 0.113473
H	-1.1928692355	-2.8639269972	-4.0851132158	 0.138491
H	-0.1751616875	-4.0283035964	-3.2083283215	 0.111592
H	-2.1761141424	 0.4802875447	-4.4104750754	 0.304462
34.8434	107.3927	141.3223	171.919	209.0734	233.6875	254.3421	283.6245	339.7939	360.5536	388.5865	423.7312	559.8282	581.9076	661.0549	755.1312	801.4896	835.585	903.1809	914.7274	966.769	970.3414	1011.5807	1014.0457	1073.9574	1097.2295	1128.0139	1156.369	1174.353	1181.2067	1238.157	1260.2999	1266.1098	1291.1424	1332.5822	1340.1571	1375.9971	1400.6957	1406.4488	1411.7598	1483.6903	1486.3577	1491.7521	1498.764	1501.0809	1511.6505	1771.9577	3014.3606	3019.0972	3028.9362	3032.8623	3034.7337	3052.2755	3059.1342	3097.0013	3098.0092	3118.4526	3121.998	3131.2633	3820.3575
CCC1CC(C)C1=NO	CC[C@H]1C[C@@H](C)C1=NO	
InChI=1S/C7H13NO/c1-3-6-4-5(2)7(6)8-9/h5-6,9H,3-4H2,1-2H3	InChI=1S/C7H13NO/c1-3-6-4-5(2)7(6)8-9/h5-6,9H,3-4H2,1-2H3/t5-,6+/m1/s1
