16
gdb 15055	2.89067	1.61114	1.1	1.5287	67.13	-0.2667	0.0271	0.2938	1065.2999	0.127332	-383.659403	-383.65065	-383.649706	-383.693227	30.63	
C	-1.3036324523	-0.4928964858	 0.0448824582	-0.237189
O	 0.0893689852	-0.7253421053	-0.0294260032	-0.235418
C	 0.78368095	-0.4654378527	 1.1780178226	-0.082443
C	 0.3842588401	-1.3693790825	 2.2656669475	 0.336688
C	 0.06325081	-2.1232341997	 3.1448584094	-0.466073
C	 2.262507792	-0.6132484908	 0.8588870732	 0.081502
C	 3.0425399161	 0.5337924591	 0.3902588595	-0.177061
O	 3.1562089482	 0.0600304906	 1.7363611127	-0.230646
H	-1.5227340467	 0.5535712757	 0.3076018748	 0.105946
H	-1.7107766037	-0.7031754597	-0.9463256688	 0.130841
H	-1.7870858445	-1.1474007624	 0.7816560434	 0.124264
H	 0.6107815228	 0.5742082817	 1.5043181827	 0.097942
H	-0.2163512465	-2.7826750733	 3.9293358655	 0.203148
H	 2.5626236615	-1.6189990702	 0.5680131589	 0.110256
H	 3.9148049678	 0.3699678457	-0.2396653469	 0.120656
H	 2.5567662	 1.5016062596	 0.2749315704	 0.117587
61.0947	99.1435	140.7993	177.5185	186.6659	244.9527	335.8915	388.2327	448.5853	525.7845	595.6346	638.9822	677.8512	852.1126	876.8408	924.1992	974.3391	1017.9473	1095.842	1121.826	1148.8767	1158.8796	1174.4983	1183.7363	1219.8713	1285.4303	1292.6771	1343.7266	1444.6469	1477.693	1485.1465	1510.3359	1529.9991	2231.9534	2962.7581	2985.7512	3051.1016	3089.0556	3124.9895	3127.0897	3178.0866	3501.5401
COC(C#C)C1CO1	CO[C@@H](C#C)[C@H]1CO1	
InChI=1S/C6H8O2/c1-3-5(7-2)6-4-8-6/h1,5-6H,4H2,2H3	InChI=1S/C6H8O2/c1-3-5(7-2)6-4-8-6/h1,5-6H,4H2,2H3/t5-,6+/m0/s1
