15
gdb 49782	2.18123	1.62328	0.99949	3.4366	74.53	-0.252	-0.0273	0.2247	1134.6728	0.1126	-416.803729	-416.795476	-416.794532	-416.837466	29.445	
O	-0.0411580073	-0.0437277684	 0.0214361864	-0.309803
C	-0.0000327911	 1.1634285223	-0.0296138805	 0.154867
N	 1.1631256337	 1.8969930007	-0.008996838	-0.075967
C	 2.4529144273	 1.3645463285	 0.065252328	 0.091637
N	 3.4143872266	 2.1944290565	 0.0675724284	-0.253227
C	 2.8399769289	 3.5403429481	-0.0311030307	-0.183115
C	 1.2720617222	 3.371722694	-0.041307161	-0.192391
C	 0.6125489173	 3.9704797679	-1.193201549	 0.328703
C	 0.0766769566	 4.4818081617	-2.1392192037	-0.446184
H	-0.8948529249	 1.807383149	-0.101638715	 0.098999
H	 2.5518167356	 0.2874397519	 0.1138355922	 0.172449
H	 3.1657920639	 4.1510238123	 0.8152987828	 0.13145
H	 3.1884601984	 4.0267319474	-0.946370416	 0.139106
H	 0.8396656252	 3.7871654438	 0.8762317513	 0.130541
H	-0.3975613224	 4.9300045744	-2.9777240551	 0.212935
49.9347	90.9925	161.5865	230.2441	247.4169	250.2788	438.82	475.883	523.1857	575.7407	635.24	673.3405	745.0822	804.1445	870.3747	932.1311	961.0062	975.9597	1028.0345	1034.2046	1063.4317	1197.654	1216.7615	1277.6889	1298.0093	1323.5425	1363.4786	1393.4729	1440.3825	1492.8372	1705.2572	1800.6999	2240.344	2976.6085	3032.2595	3061.8758	3102.5668	3235.7124	3499.6816
O=CN1C=NCC1C#C	O=CN1C=NC[C@H]1C#C	
InChI=1S/C6H6N2O/c1-2-6-3-7-4-8(6)5-9/h1,4-6H,3H2	InChI=1S/C6H6N2O/c1-2-6-3-7-4-8(6)5-9/h1,4-6H,3H2/t6-/m1/s1
