21
gdb 53709	8.9971	0.38801	0.3798	2.8286	90.36	-0.2441	-0.0209	0.2232	2786.2689	0.178979	-387.084918	-387.073484	-387.07254	-387.124528	37.812	
C	 0.002499749	 1.5324751299	-0.0479676438	-0.496996
C	 0.0221873306	 0.0763163111	-0.0448704308	 0.110706
C	 0.0503073767	-1.1275152387	-0.0423799367	 0.023071
C	 0.0460916212	-2.5863481515	-0.0364257033	-0.359533
C	-1.3701610757	-3.1849773232	 0.080897539	-0.165802
C	-1.3621568289	-4.7165054714	 0.0853813773	-0.192301
C	-2.7727923932	-5.317367173	 0.2136580428	-0.278294
C	-2.7557940434	-6.8245092952	 0.1045966679	 0.160217
O	-3.1948029686	-7.5853076922	 0.9275991432	-0.236426
H	 0.9801271642	 1.9445249058	 0.2260672519	 0.147201
H	-0.2563966527	 1.9271511396	-1.0368155923	 0.145759
H	-0.7314129719	 1.9232649199	 0.6656832014	 0.1463
H	 0.5224519224	-2.9613987774	-0.9527317224	 0.123969
H	 0.6635088825	-2.9551440533	 0.7939687988	 0.125904
H	-1.8399746799	-2.8116717178	 0.9981925965	 0.112549
H	-1.9833307617	-2.8184028888	-0.7509451271	 0.108474
H	-0.89234073	-5.083434006	-0.8375451719	 0.102635
H	-0.7384424825	-5.0795883259	 0.9124338982	 0.112402
H	-3.2452452687	-5.0398015989	 1.1604728874	 0.122995
H	-3.3998303684	-4.9343709736	-0.6051355922	 0.118756
H	-2.2805100012	-7.2071796294	-0.8306198138	 0.068414
25.0878	40.1889	50.7658	69.4593	114.8433	123.3413	169.6692	221.8044	264.0882	322.7432	371.4526	387.3292	512.5124	525.1673	736.1103	762.7174	779.667	840.5919	945.1681	994.2424	1009.8613	1052.8203	1054.0199	1054.4021	1101.5379	1125.782	1169.4796	1177.5644	1241.8101	1268.879	1309.0743	1321.6063	1330.4452	1371.2786	1394.7207	1415.9496	1429.8884	1464.6251	1476.0333	1479.2962	1479.9068	1488.493	1507.4239	1837.4344	2374.3383	2843.8277	3006.9657	3008.8416	3014.2617	3025.7195	3033.1658	3037.003	3047.171	3081.327	3085.449	3085.7328	3099.7412
CC#CCCCCC=O	CC#CCCCCC=O	
InChI=1S/C8H12O/c1-2-3-4-5-6-7-8-9/h8H,4-7H2,1H3	InChI=1S/C8H12O/c1-2-3-4-5-6-7-8-9/h8H,4-7H2,1H3
