21
gdb 40688	4.13765	0.87652	0.77008	0.657	85.9	-0.2282	0.083	0.3111	1526.3528	0.182223	-383.183212	-383.174419	-383.173475	-383.217431	33.318	
C	-0.2847245568	 2.0021201651	 0.0441122479	-0.329685
C	 1.0209799917	 1.2519680615	-0.0459742153	 0.023413
C	-0.2721842965	 0.4937846994	 0.0659109356	 0.023413
N	-0.5532526288	-0.1602067443	 1.3137346486	-0.06716
C	-1.8353099074	-0.8540122818	 1.4080758788	-0.218102
C	-0.5636484038	-1.6207713529	 1.2923371954	-0.224099
N	 1.6955264443	 1.2318305473	-1.3141815956	-0.06716
C	 2.9276512393	 2.011180228	-1.4059473487	-0.218101
C	 2.9721037897	 0.5231619752	-1.3583699503	-0.224099
H	-0.508432661	 2.5089001245	 0.9754675243	 0.117306
H	-0.6401027863	 2.4874621704	-0.8572441419	 0.117306
H	 1.6441899853	 1.2539475971	 0.8519130626	 0.080162
H	-0.6042211387	-0.0070458968	-0.8470602961	 0.080162
H	-2.3474422625	-0.7735775516	 2.3627685327	 0.115103
H	-2.4879437913	-0.8368228135	 0.5370803059	 0.111464
H	-0.3654074865	-2.11669622	 0.3437122229	 0.112022
H	-0.1322127596	-2.1101334306	 2.1610062592	 0.114733
H	 3.0845597183	 2.5393026184	-2.3422452584	 0.115103
H	 3.2567716541	 2.5482495126	-0.5181996951	 0.111464
H	 3.3310357018	 0.0645470689	-0.4386032624	 0.112022
H	 3.1627537046	-0.053250477	-2.25925802	 0.114733
54.0394	90.3718	134.7472	156.6483	284.2307	285.9917	345.0996	420.4737	458.7473	506.2347	729.9412	746.0356	823.7954	824.3229	875.8904	893.6602	900.2536	945.7247	966.2376	972.7334	1041.9925	1046.8685	1053.7108	1077.9867	1085.9573	1105.3327	1116.8353	1117.1171	1117.1976	1118.8079	1133.482	1175.5072	1175.7846	1204.1617	1213.6286	1229.355	1316.8959	1319.3283	1344.5648	1422.3094	1484.6516	1491.4875	1491.6558	1518.006	1520.8286	3065.9419	3068.94	3095.7809	3096.0646	3100.0284	3100.6552	3143.8476	3177.1422	3177.152	3191.9498	3191.9688	3238.5919
C1C(C1N1CC1)N1CC1	C1[C@@H]([C@H]1N1CC1)N1CC1	
InChI=1S/C7H12N2/c1-2-8(1)6-5-7(6)9-3-4-9/h6-7H,1-5H2	InChI=1S/C7H12N2/c1-2-8(1)6-5-7(6)9-3-4-9/h6-7H,1-5H2/t6-,7-/m0/s1
