14
gdb 20450	6.26873	1.49793	1.31568	3.643	62.99	-0.2493	0.009	0.2583	900.0255	0.111244	-374.900401	-374.894059	-374.893115	-374.931326	23.328	
C	 0.9430226108	 1.1394605467	 0.0477869681	-0.224101
N	 0.3734168697	 0.0513266641	-0.7548144671	-0.326239
C	-0.4029203488	 0.5823510489	 0.3783786502	-0.142205
C	-0.5945900585	-0.3646456227	 1.4914999986	 0.420094
N	-1.3086407572	-0.1844455871	 2.590702943	-0.33669
C	-1.1215980576	-1.3553080703	 3.2624465171	 0.020588
N	-0.3478163511	-2.2410003154	 2.6558792882	-0.213882
N	-0.0180105432	-1.5830511072	 1.5193181336	-0.231362
H	 1.7985611391	 0.8616519467	 0.6557678488	 0.133176
H	 0.9817984522	 2.1405837828	-0.372434041	 0.127362
H	 0.0070317768	 0.3998523782	-1.6354105066	 0.246389
H	-1.2584330232	 1.2228081189	 0.1860876492	 0.116873
H	-1.5699903468	-1.5603064222	 4.2231201564	 0.12365
H	 0.5420921477	-2.0103883112	 0.7990302915	 0.286345
88.9399	162.406	192.0327	392.2099	466.9068	620.6096	660.3988	711.7583	753.299	865.4969	898.5641	909.1214	918.806	974.1845	983.1619	1048.9607	1091.832	1117.9956	1124.3139	1167.0301	1208.4968	1230.7518	1276.8381	1293.5912	1311.028	1366.0647	1450.8423	1502.4841	1511.2541	1600.3317	3116.054	3161.2642	3207.3717	3260.3685	3523.9212	3661.6487
C1NC1C1=NC=NN1	C1N[C@H]1c1ncn[nH]1	
InChI=1S/C4H6N4/c1-3(5-1)4-6-2-7-8-4/h2-3,5H,1H2,(H,6,7,8)	InChI=1S/C4H6N4/c1-3(5-1)4-6-2-7-8-4/h2-3,5H,1H2,(H,6,7,8)/t3-/m1/s1
