13
gdb 27503	2.16634	1.89403	1.01085	5.3105	66.06	-0.2442	-0.0293	0.215	1069.6587	0.089428	-489.946323	-489.938555	-489.937611	-489.979076	28.705	
N	 0.0613483331	 1.3537568843	-0.026086423	-0.565234
C	-0.0862130885	 0.0102918626	-0.0882056267	 0.490468
C	-1.2251918418	-0.6922443436	 0.1384855401	-0.413254
C	-1.230614046	-2.1110311507	-0.0228681021	 0.442602
O	-2.1243977422	-2.891366916	 0.1233038971	-0.33024
O	 0.0313586211	-2.6591791054	-0.4167850486	-0.263952
C	 1.1525770178	-1.9428272209	-0.6148065657	 0.473268
N	 2.2732380922	-2.4043895805	-0.9395354958	-0.536563
O	 1.072793306	-0.576325237	-0.4498477177	-0.22932
H	 0.9992732612	 1.7197273001	-0.0093459879	 0.283448
H	-0.6586780362	 1.8994291504	 0.4147927464	 0.281477
H	-2.1427823141	-0.2045096814	 0.4307169295	 0.121315
H	 2.2173063374	-3.416070642	-1.0333415756	 0.245984
65.3827	138.0454	167.5958	320.7961	339.6335	377.4789	421.1815	482.2401	531.7036	593.9109	653.5994	687.4607	705.8184	718.8059	787.2251	841.0069	864.2069	913.6675	1038.621	1079.6746	1126.5153	1160.2137	1305.592	1349.6619	1457.2545	1626.3247	1703.225	1778.9917	1882.2039	3246.2533	3540.2999	3612.6063	3737.0005
NC1=CC(=O)OC(=N)O1	NC1=CC(=O)O[C]([NH])O1	
InChI=1S/C4H4N2O3/c5-2-1-3(7)9-4(6)8-2/h1,6H,5H2	InChI=1S/C4H4N2O3/c5-2-1-3(7)9-4(6)8-2/h1,6H,5H2
