17
gdb 16631	2.98095	2.37746	1.54881	1.7205	67.2	-0.2265	-0.0245	0.202	842.4429	0.142593	-363.867318	-363.860093	-363.859149	-363.898681	27.739	
C	 0.0893578418	 1.629868899	 0.0110228272	-0.39086
C	 0.0982074909	 0.1061635913	 0.0051175261	-0.064173
N	 0.7128856541	-0.5021206331	-1.1861008566	-0.1018
C	 2.1753230193	-0.3610319755	-1.2414136134	-0.25311
C	 1.581980933	-1.6230212411	-0.7334194998	-0.018336
C	 1.516514935	-1.7809600635	 0.7705622532	-0.342344
C	 0.7829615104	-0.5161928896	 1.2377114951	 0.368214
O	 0.7369948039	-0.0881730137	 2.3607577787	-0.30945
H	 1.1020744955	 2.0341322258	-0.0781083493	 0.120515
H	-0.5086337824	 2.0157739354	-0.8180037582	 0.126943
H	-0.3328016517	 1.9849830345	 0.9544721782	 0.14026
H	-0.943301355	-0.2496477474	 0.0337243367	 0.111794
H	 2.5891384507	-0.3115907793	-2.2439043004	 0.123258
H	 2.670288711	 0.2893793541	-0.5205409046	 0.117049
H	 1.569360013	-2.5100142134	-1.3589768656	 0.097851
H	 0.9222025547	-2.6555962783	 1.0629268732	 0.136101
H	 2.487236666	-1.8674493453	 1.2655469096	 0.138087
89.3339	185.9591	235.5369	240.1189	354.4881	452.4357	466.7022	552.191	624.5674	662.967	741.3553	764.6541	828.9717	886.0285	892.9825	968.8376	1006.5043	1028.4086	1084.4764	1111.491	1112.7182	1127.1255	1164.3163	1173.7692	1184.2449	1272.1457	1281.6327	1302.7142	1337.5238	1385.6081	1402.5904	1452.7115	1488.6184	1496.6734	1511.4983	1848.1014	2990.9743	3042.603	3048.9393	3092.0873	3101.4194	3120.0855	3133.6561	3154.7106	3186.6909
CC1N2CC2CC1=O	C[C@H]1N2C[C@H]2CC1=O	
InChI=1S/C6H9NO/c1-4-6(8)2-5-3-7(4)5/h4-5H,2-3H2,1H3	InChI=1S/C6H9NO/c1-4-6(8)2-5-3-7(4)5/h4-5H,2-3H2,1H3/t4-,5-,7?/m1/s1
