17
gdb 102237	1.89172	1.31078	0.88962	4.9819	70.03	-0.2611	-0.0037	0.2573	1335.9847	0.133952	-455.182529	-455.172297	-455.171353	-455.219323	34.612	
C	-0.0988749852	 1.4517381186	 0.0380008667	-0.483308
C	 0.0917541327	-0.0408806299	-0.0308700821	 0.444134
O	 1.1343428044	-0.6233854065	-0.1506696548	-0.332356
O	-1.1146266939	-0.6761605762	 0.060614419	-0.257909
C	-1.0753100908	-2.1132521398	 0.0172158489	-0.002232
C	-2.3277205561	-2.6203206148	 0.7377065967	-0.174563
N	-2.2618286953	-2.2241836448	 2.1393427148	-0.514496
C	-1.0353243113	-2.5740557397	-1.3790625818	 0.28204
N	-1.0342333306	-2.9585887145	-2.4680583139	-0.31506
H	 0.8724194304	 1.9416169931	-0.0119605539	 0.157579
H	-0.7280067774	 1.783357045	-0.7928925445	 0.160703
H	-0.6104664357	 1.7249521399	 0.9649995628	 0.151674
H	-0.1763877148	-2.4591086955	 0.533619609	 0.16135
H	-3.2128053628	-2.2617168915	 0.1887971781	 0.11257
H	-2.3255672194	-3.7131303908	 0.6753709865	 0.133031
H	-2.4134205164	-1.2238432932	 2.2173699361	 0.23795
H	-3.0041220778	-2.6757251194	 2.6624638824	 0.238893
36.595	57.9829	90.0947	118.8405	143.1071	192.6806	248.2752	271.7525	322.3922	393.681	450.9589	542.0897	567.6472	609.5965	660.8525	831.49	855.8352	924.953	985.6864	1000.5035	1045.5241	1065.2653	1072.9811	1128.38	1207.222	1234.2966	1270.6147	1345.7134	1373.2186	1397.879	1429.5434	1467.8043	1474.8973	1495.8556	1653.4534	1843.8195	2364.545	2981.4392	3059.2125	3082.2908	3098.6585	3124.826	3173.488	3511.4912	3590.7038
CC(=O)OC(CN)C#N	CC(=O)O[C@@H](CN)C#N	
InChI=1S/C5H8N2O2/c1-4(8)9-5(2-6)3-7/h5H,2,6H2,1H3	InChI=1S/C5H8N2O2/c1-4(8)9-5(2-6)3-7/h5H,2,6H2,1H3/t5-/m0/s1
