18
gdb 105953	3.12349	1.47662	1.17981	2.8885	74.91	-0.2044	0.0565	0.2609	1076.3296	0.146119	-401.821148	-401.812792	-401.811847	-401.854113	31.549	
C	 0.0809242458	 1.5298586355	 0.0374065128	-0.52661
C	-0.0227124087	 0.0473486962	-0.0795868802	 0.267195
C	 0.8181659199	-0.9738674969	-0.7640301324	-0.115614
C	-0.3512410678	-1.9866423704	-0.7685708462	-0.162501
C	-0.3628132373	-1.8800396102	 0.7369309521	-0.059896
N	 0.8122037078	-0.9016232374	 0.7450840792	-0.223486
C	-1.2283275075	-0.9445377554	-0.0619499029	 0.323608
C	-2.7092972072	-0.7776351656	-0.1077554367	-0.236753
O	-3.2777035069	-2.0805301556	-0.0764098664	-0.41936
H	 1.1345689899	 1.8216883662	 0.0911715221	 0.136721
H	-0.3707913374	 2.0325099952	-0.825154989	 0.120649
H	-0.4143831939	 1.8934177205	 0.9448490017	 0.125702
H	 1.7312857906	-0.8820468669	-1.3416715585	 0.090843
H	-0.6534701834	-2.7886738218	-1.4255092002	 0.10107
H	-0.5863412729	-2.5933161775	 1.5196919255	 0.101881
H	-3.0498742418	-0.1740154608	 0.7503877227	 0.09321
H	-3.002451844	-0.2353294404	-1.0228947799	 0.090914
H	-4.2348398352	-1.9900817048	-0.0664044038	 0.292428
80.2534	134.5732	189.9835	213.0735	238.3329	255.0603	306.2073	443.1184	587.036	648.5529	671.9523	747.8811	774.7201	815.4143	865.6278	866.2608	894.9909	914.172	964.1	980.8991	1006.7288	1028.7445	1060.1179	1080.0267	1093.0814	1109.6174	1175.7059	1193.5337	1232.462	1236.2931	1259.536	1275.2903	1392.2987	1423.7932	1432.3176	1478.7232	1484.9185	1492.4427	1523.0093	2948.6123	2969.9596	3025.9088	3088.5917	3106.1432	3169.8062	3195.1499	3229.5615	3834.2894
CC12C3C4C(N13)C24CO	C[C@@]12[C@@H]3[C@H]4[C@@H](N13)[C@@]24CO	
InChI=1S/C7H9NO/c1-6-4-3-5(8(4)6)7(3,6)2-9/h3-5,9H,2H2,1H3	InChI=1S/C7H9NO/c1-6-4-3-5(8(4)6)7(3,6)2-9/h3-5,9H,2H2,1H3/t3-,4-,5+,6-,7-,8?/m0/s1
