20
gdb 122655	4.92954	0.7559	0.69429	1.4588	76.38	-0.2475	0.022	0.2695	1645.6666	0.17116	-440.290305	-440.28097	-440.280026	-440.32618	32.731	
C	 0.1254615049	 1.156426028	 0.0195210148	-0.385602
C	 0.6316169253	-0.2753863507	 0.1858493753	-0.040748
O	 1.2511479574	-0.8001443642	-0.9765844798	-0.251733
C	 0.3611291906	-1.1676068276	-2.010007329	-0.069072
C	 1.1851741406	-1.8614926438	-3.0903255144	-0.005359
C	 1.8502122886	-3.1776146567	-2.6088921999	-0.113088
O	 1.2896717659	-4.1937421565	-3.4823834108	-0.221098
C	 0.4570773039	-3.5286276028	-4.3129534806	 0.122049
N	 0.3184072853	-2.2728761279	-4.2122472074	-0.280151
H	 0.9378653487	 1.8128672174	-0.3060472929	 0.127107
H	-0.6844034445	 1.2219401704	-0.7129146124	 0.124629
H	-0.2592341345	 1.5300338387	 0.9741706318	 0.116639
H	 1.4005557627	-0.3101470945	 0.9647344186	 0.107244
H	-0.1913132805	-0.9360048158	 0.5043397492	 0.088087
H	-0.4129453976	-1.8567231046	-1.630617319	 0.086649
H	-0.1516981151	-0.300099008	-2.4475915822	 0.107483
H	 1.931839883	-1.1467328718	-3.452759844	 0.098348
H	 2.9359268488	-3.1914470487	-2.7259372606	 0.123021
H	 1.5991341193	-3.4302656085	-1.5756629143	 0.124867
H	-0.0485704028	-4.1591208225	-5.0364483724	 0.140728
37.0286	66.0177	76.6027	142.7736	157.8904	236.4362	312.6256	380.8083	403.9097	474.039	575.425	726.0222	802.4998	857.2075	876.0326	913.356	942.2684	955.7075	968.2579	998.495	1034.1996	1084.2647	1098.877	1141.6341	1148.39	1167.069	1201.4321	1214.6692	1257.4108	1277.8158	1316.6712	1326.8659	1364.8233	1379.5933	1395.7183	1411.9402	1424.2641	1488.5969	1489.9166	1506.6934	1516.5669	1525.911	1703.2918	2960.0103	2975.7991	3025.4051	3041.7448	3050.3766	3067.5014	3067.78	3111.0463	3116.9279	3120.7567	3213.3811
CCOCC1COC=N1	CCOC[C@H]1COC=N1	
InChI=1S/C6H11NO2/c1-2-8-3-6-4-9-5-7-6/h5-6H,2-4H2,1H3	InChI=1S/C6H11NO2/c1-2-8-3-6-4-9-5-7-6/h5-6H,2-4H2,1H3/t6-/m0/s1
