16
gdb 12630	3.35222	2.05106	1.38303	2.442	66.62	-0.2437	-0.0143	0.2293	899.4727	0.131084	-379.97716	-379.969227	-379.968282	-380.009613	28.096	
C	-0.1015382023	 1.5410423995	 0.0342426739	-0.383677
C	 0.0568951399	 0.0208833231	-0.034234114	-0.09152
N	 0.8889455848	-0.4111210144	-1.1684715446	-0.258881
C	 1.8368537663	-1.0991274342	-0.6609788905	 0.05939
N	 1.8285268791	-1.2477218284	 0.7236456875	-0.099157
C	 2.7899189499	-1.9504951711	 1.5455219076	-0.353742
C	 0.7276780421	-0.5543173236	 1.2212644251	 0.398826
O	 0.4209962926	-0.4509428256	 2.3858794457	-0.380101
H	 0.8757983609	 2.0285981776	 0.0943521266	 0.125131
H	-0.6130498196	 1.9063825631	-0.8589752617	 0.13219
H	-0.6804946257	 1.811282153	 0.9211099713	 0.1392
H	-0.9348279644	-0.439152152	-0.1336600631	 0.126226
H	 2.6317448964	-1.5644811942	-1.2367341802	 0.135764
H	 2.8160181135	-3.0180634699	 1.3042117633	 0.139289
H	 3.7957137064	-1.5342352265	 1.4273670314	 0.138715
H	 2.4716911703	-1.8265288762	 2.5826614716	 0.172346
94.8452	105.8151	173.3173	221.8362	246.2996	282.4705	319.384	494.8348	573.0111	628.9537	713.9707	740.1182	832.006	901.1389	943.3435	994.7087	1046.82	1089.4962	1108.7463	1146.96	1155.7494	1251.6179	1298.799	1309.245	1320.23	1393.4239	1404.2612	1455.6786	1487.8839	1495.7404	1497.409	1508.8868	1677.4322	1830.8093	3033.0709	3033.7721	3049.076	3094.015	3124.327	3136.8381	3140.5617	3182.4534
CC1N=CN(C)C1=O	C[C@H]1N=CN(C)C1=O	
InChI=1S/C5H8N2O/c1-4-5(8)7(2)3-6-4/h3-4H,1-2H3	InChI=1S/C5H8N2O/c1-4-5(8)7(2)3-6-4/h3-4H,1-2H3/t4-/m1/s1
