19
gdb 66056	2.50649	1.2254	1.10251	2.2278	82.63	-0.2475	-0.0274	0.2201	1202.8011	0.156323	-385.861027	-385.851435	-385.850491	-385.895658	35.285	
C	-0.1682060653	 1.717869817	 0.1968572394	-0.463876
C	-0.1196120572	 0.1973177639	 0.0678534356	 0.222189
C	 0.9399616936	-0.3462111236	-0.9251010364	-0.273588
C	 1.8893252609	-0.6600735801	 0.2568016191	-0.231136
C	 0.6863054441	-0.5276421216	 1.244324661	-0.218214
C	 0.8758071198	 0.1620400754	 2.5000421332	 0.326972
C	 1.0418045564	 0.7517726518	 3.5356951049	-0.453714
C	-1.512199398	-0.3700491481	-0.0677839529	 0.104316
O	-1.8423406619	-1.2187072919	-0.8574353992	-0.255643
H	 0.826312601	 2.128059983	 0.3917100656	 0.132003
H	-0.5466924439	 2.1672651285	-0.7275044241	 0.124441
H	-0.8171424411	 2.0261833746	 1.0228840815	 0.130607
H	 0.5714883277	-1.2408011601	-1.4312085115	 0.129528
H	 1.3009410147	 0.3623380599	-1.6732934703	 0.104146
H	 2.3980743492	-1.6256299565	 0.2565588503	 0.11269
H	 2.6276518378	 0.1259300376	 0.4271523908	 0.116702
H	 0.2461583337	-1.5142085844	 1.424566727	 0.115035
H	 1.1894562494	 1.2618140545	 4.4553251428	 0.198779
H	-2.2442040011	 0.0427315701	 0.6657852833	 0.078762
58.9071	81.2224	138.6167	183.0997	223.9666	252.8644	291.0854	318.1585	344.5929	475.8902	507.1592	559.6346	621.0732	638.5098	672.0141	743.77	796.0257	871.0538	901.1314	943.0037	960.6459	969.9831	1007.6476	1070.6789	1102.6702	1142.2206	1176.787	1227.7982	1235.4306	1260.7409	1274.2934	1302.1024	1344.6576	1408.1846	1423.6448	1484.2749	1488.9611	1494.6679	1501.277	1820.7002	2228.9284	2857.4559	3034.778	3046.9099	3072.8719	3077.169	3103.8974	3114.6469	3121.7381	3137.9683	3502.4597
CC1(CCC1C#C)C=O	C[C@]1(CC[C@H]1C#C)C=O	
InChI=1S/C8H10O/c1-3-7-4-5-8(7,2)6-9/h1,6-7H,4-5H2,2H3	InChI=1S/C8H10O/c1-3-7-4-5-8(7,2)6-9/h1,6-7H,4-5H2,2H3/t7-,8+/m1/s1
