17
gdb 44878	2.99349	1.53798	1.37354	3.478	72.86	-0.2265	-0.016	0.2104	985.5637	0.138188	-417.959508	-417.952503	-417.951558	-417.990874	28.143	
O	 0.0256149933	 0.0646404298	 0.0104951177	-0.327035
C	 0.0227699708	 1.263740017	 0.0318165389	 0.444092
C	-1.187495464	 2.2373605211	 0.0637566639	-0.35307
C	-0.3665964306	 3.5460406361	 0.0178367381	-0.111439
N	 0.6996034589	 3.2710037943	-1.0084453197	-0.318405
C	 1.195962873	 2.2519934112	-0.0116597617	-0.203003
C	 0.736959446	 3.2699259427	 1.0492383751	 0.44955
C	 1.5081254946	 4.2033181017	 1.8761794805	-0.332344
N	 0.7020456902	 3.1077496462	 2.4824792424	-0.388096
H	-1.8416450161	 2.1113021192	-0.8044500576	 0.125335
H	-1.7860379555	 2.0890663039	 0.9683521288	 0.127481
H	-0.8946358143	 4.4982176577	-0.0452205849	 0.083369
H	 0.327484895	 2.838651352	-1.8563945144	 0.220829
H	 2.2079897095	 1.8641093939	-0.100728256	 0.094502
H	 2.5824725723	 4.0881722493	 1.9846413749	 0.131591
H	 1.1469925541	 5.2250099677	 1.963652421	 0.120837
H	-0.1629120172	 3.4734228364	 2.8746384429	 0.235805
111.9958	192.2498	246.1587	323.5702	415.1039	448.2716	533.4215	572.8745	644.6852	660.8264	789.7916	815.5706	830.9326	874.3078	907.4361	940.0373	953.614	970.6013	977.5021	992.367	1047.0846	1075.2551	1111.7536	1135.0681	1144.7955	1153.6351	1200.2201	1221.5852	1246.2165	1260.0403	1267.7136	1290.7495	1339.0721	1448.8448	1463.4555	1528.0191	1872.733	3053.6554	3100.2153	3109.3315	3109.9636	3157.1642	3197.0693	3429.7332	3493.0302
O=C1CC2NC1C21CN1	O=C1C[C@@H]2N[C@H]1[C@]12CN1	
InChI=1S/C6H8N2O/c9-3-1-4-6(2-7-6)5(3)8-4/h4-5,7-8H,1-2H2	InChI=1S/C6H8N2O/c9-3-1-4-6(2-7-6)5(3)8-4/h4-5,7-8H,1-2H2/t4-,5+,6+/m0/s1
