16
gdb 7061	6.25058	0.95542	0.90233	3.912	71.93	-0.245	0.0062	0.2512	1247.0595	0.128275	-342.739692	-342.730782	-342.729838	-342.773418	31.406	
C	 0.0001072403	 1.4859309265	-0.0382380705	-0.343748
N	 0.0081924725	 0.0257219694	-0.0297379288	-0.066217
C	 0.7295459825	-0.5260225636	 1.1214810817	-0.306056
C	 2.143792645	-0.1661852725	 1.126179431	 0.293769
C	 3.3093266266	 0.1223377914	 1.1551081225	-0.409836
C	-1.3350997329	-0.533499714	-0.0903578767	-0.274267
C	-2.0110203288	-0.2051706992	-1.3507861021	 0.277198
N	-2.5614058239	 0.0525284967	-2.3328368591	-0.304645
H	 1.0291554265	 1.8491744384	-0.032372582	 0.147087
H	-0.4893764923	 1.8432072693	-0.947287234	 0.150446
H	-0.5275169295	 1.9132946614	 0.8350360272	 0.097449
H	 0.2759199919	-0.2093367028	 2.082435568	 0.114736
H	 0.6422772347	-1.6191617995	 1.0834725828	 0.137534
H	 4.3413211642	 0.3729813507	 1.1729757083	 0.203926
H	-1.2713707204	-1.6254157638	-0.0189094617	 0.15364
H	-1.9874125562	-0.1963093584	 0.7399569434	 0.128984
56.7261	108.4158	121.0797	198.8438	252.1056	326.784	345.3594	346.7296	383.7845	395.5999	470.7978	617.2942	628.7779	673.4903	861.263	916.5081	983.9169	994.4055	1019.6744	1055.7471	1153.7627	1179.5321	1212.804	1293.2542	1308.4263	1367.8815	1415.4024	1461.5867	1470.393	1484.2573	1499.3003	1503.7772	2244.8006	2367.8866	2899.5948	2910.2909	2937.4731	3038.1501	3060.2143	3093.9186	3142.1467	3504.0147
CN(CC#C)CC#N	CN(CC#C)CC#N	
InChI=1S/C6H8N2/c1-3-5-8(2)6-4-7/h1H,5-6H2,2H3	InChI=1S/C6H8N2/c1-3-5-8(2)6-4-7/h1H,5-6H2,2H3
