20
gdb 55956	3.64508	0.91707	0.89563	3.2452	79.99	-0.2351	0.0303	0.2654	1387.6526	0.171464	-403.200559	-403.191243	-403.190299	-403.236384	33.958	
N	-0.2080443885	 1.1753908481	 0.6733169592	-0.523646
C	 0.0251167241	-0.0283310984	 0.0693163545	 0.411388
O	 1.1177463326	-0.3290529953	-0.3722497255	-0.362301
C	-1.1918214015	-0.9491738638	-0.0192630969	-0.324226
C	-0.8037770413	-2.4291258329	-0.1154775517	 0.034766
C	-0.2102049844	-2.9448059996	 1.2289577779	-0.254725
C	-1.3501107134	-3.7135633812	 1.8509081557	-0.059576
C	-2.3456265874	-3.9187249524	 0.9904291916	-0.056517
C	-2.0522954141	-3.3245040118	-0.3664120376	-0.283071
H	 0.5278090678	 1.8627700199	 0.6618860324	 0.258217
H	-1.1264644402	 1.4567503083	 0.9677319123	 0.256023
H	-1.8623237953	-0.7835317962	 0.8336789164	 0.104605
H	-1.7513837851	-0.651501564	-0.9167463068	 0.12172
H	-0.071470069	-2.5205799189	-0.9189243985	 0.095589
H	 0.6577817393	-3.596527658	 1.0628532963	 0.109434
H	 0.1512354093	-2.1262178116	 1.8628837556	 0.102081
H	-1.323475906	-4.073347587	 2.8739909115	 0.0869
H	-3.2539058603	-4.4729528528	 1.2013239112	 0.087124
H	-2.8974513405	-2.7546711038	-0.7734382814	 0.091946
H	-1.841001906	-4.1156123586	-1.0993257162	 0.104269
21.94	64.724	94.0208	161.5514	165.8225	315.3815	334.7851	398.0742	444.8134	516.6928	609.0425	654.521	690.6057	735.6559	779.7957	849.2011	857.421	901.9229	919.6614	958.5633	975.1396	979.0078	999.2069	1070.2071	1077.3055	1100.9867	1131.0291	1168.9187	1188.4949	1232.0729	1256.7915	1283.2219	1312.8193	1330.6287	1354.4079	1382.037	1405.6127	1460.7329	1484.7415	1492.771	1616.5741	1688.3641	1794.1859	3007.3057	3014.796	3019.4509	3037.1877	3048.924	3054.2828	3104.0912	3177.307	3203.267	3600.2945	3737.76
NC(=O)CC1CC=CC1	NC(=O)C[C@H]1CC=CC1	
InChI=1S/C7H11NO/c8-7(9)5-6-3-1-2-4-6/h1-2,6H,3-5H2,(H2,8,9)	InChI=1S/C7H11NO/c8-7(9)5-6-3-1-2-4-6/h1-2,6H,3-5H2,(H2,8,9)
