19
gdb 62371	2.57601	1.81722	1.34851	0.5845	85.3	-0.2272	0.0107	0.2379	1010.6886	0.15879	-348.683322	-348.675291	-348.674347	-348.715203	32.85	
C	-0.1692253373	 1.5166017911	-0.0131545076	-0.468629
C	-0.0120698985	-0.0126293316	 0.0032514381	 0.157446
C	-1.3309998974	-0.6006938946	-0.2013287161	 0.26972
C	-2.4503342563	-1.0063141544	-0.3744225718	-0.447679
C	 1.1968524907	-0.6142577384	-0.8491126086	-0.099672
C	 2.1294994366	-0.1758143142	 0.3297299325	-0.234962
C	 0.8879911922	-0.6243479629	 1.1718830682	-0.099703
C	 0.8523050291	-2.112086077	 0.800612702	-0.080518
C	 1.054128589	-2.1054930653	-0.5199863036	-0.080524
H	 0.7719656651	 2.0477522639	 0.1340655094	 0.116822
H	-0.5958100783	 1.8360661085	-0.9689652461	 0.128731
H	-0.8634021363	 1.8272549875	 0.7737420854	 0.128743
H	-3.4289821197	-1.3889262909	-0.5260981131	 0.184202
H	 1.3633906672	-0.3108147733	-1.8826210699	 0.064439
H	 3.0373588506	-0.7651281367	 0.4655338163	 0.098384
H	 2.3603692501	 0.8896278296	 0.3703166236	 0.096531
H	 0.7378049931	-0.3312657204	 2.2108719206	 0.064442
H	 0.6739354322	-2.9358854405	 1.4760916743	 0.101113
H	 1.086866118	-2.9223956903	-1.2259130839	 0.101113
135.7653	159.7422	192.1327	265.7387	311.2906	445.0564	454.6854	501.9604	538.946	581.7	613.1392	619.9239	630.6401	722.6299	760.2781	820.9319	831.6027	867.2696	909.504	915.7544	920.9916	944.8309	979.3727	1035.2736	1080.0907	1099.5805	1107.4789	1125.9773	1148.3563	1216.2393	1220.6629	1235.3462	1242.0813	1265.7046	1320.5283	1408.5852	1486.0877	1488.1909	1518.0733	1623.8317	2225.3957	3046.0795	3078.9136	3106.9523	3117.1785	3120.09	3132.4891	3147.1048	3225.4494	3252.0612	3503.0771
CC1(C#C)C2CC1C=C2	C[C@@]1(C#C)[C@H]2C[C@@H]1C=C2	
InChI=1S/C9H10/c1-3-9(2)7-4-5-8(9)6-7/h1,4-5,7-8H,6H2,2H3	InChI=1S/C9H10/c1-3-9(2)7-4-5-8(9)6-7/h1,4-5,7-8H,6H2,2H3/t7-,8+,9-
