16
gdb 108163	3.39026	1.43488	1.22441	3.2891	69.15	-0.2232	-0.0603	0.1629	1011.315	0.122499	-437.732308	-437.724724	-437.72378	-437.764304	29.517	
O	-0.0418021265	 1.4083319969	-0.1561907991	-0.407677
C	 0.0100815336	 0.0113501051	 0.0852624102	-0.163627
C	-1.3646378005	-0.5984259882	 0.1765194531	 0.225135
C	-2.3788410854	-0.0811490376	 1.2353100688	-0.20697
N	-3.6343249969	-0.8466312431	 0.9174279651	-0.228028
C	-3.1722557329	-1.7514938412	 0.1647918471	 0.266476
O	-3.3619656284	-1.7275171381	-1.2294523748	-0.263811
C	-1.9121992825	-1.375085853	-1.1694260526	 0.021263
C	-1.6381532748	-2.0608110424	 0.0856192134	-0.252092
H	-0.5256078711	 1.5453129126	-0.9779284965	 0.287532
H	 0.6153811639	-0.5136279742	-0.6714062188	 0.093245
H	 0.5301198864	-0.1016949585	 1.0441064935	 0.122079
H	-1.9836986506	-0.211713125	 2.2544645494	 0.112693
H	-2.6393077425	 0.9722191427	 1.1032907352	 0.141918
H	-1.4063538423	-1.351321929	-2.127961243	 0.131163
H	-1.0855140095	-2.9512785773	 0.3553860389	 0.1207
93.3195	153.5651	250.3141	273.247	338.1049	382.6633	438.8307	497.612	586.2226	604.5974	645.1717	722.9781	783.7388	828.0682	838.2518	899.5972	932.5377	947.8373	1012.114	1023.3857	1031.7691	1070.5495	1105.1108	1136.8608	1160.7916	1191.3327	1219.7672	1244.2799	1296.0744	1343.3707	1389.0876	1421.3312	1481.6091	1500.3781	1622.2124	2972.9069	2988.5839	3055.7698	3095.0269	3184.9543	3199.169	3807.7811
OCC12CN=C3OC1C23	OC[C@@]12C[N][C]3O[C@@H]1[C@@H]23	
InChI=1S/C6H7NO2/c8-2-6-1-7-5-3(6)4(6)9-5/h3-4,8H,1-2H2	InChI=1S/C6H7NO2/c8-2-6-1-7-5-3(6)4(6)9-5/h3-4,8H,1-2H2/t3-,4-,6-/m1/s1
