13
gdb 25201	2.67503	1.84068	1.18525	3.9465	69.95	-0.2616	-0.0823	0.1793	965.1796	0.092067	-448.961913	-448.954787	-448.953843	-448.994039	25.992	
N	-0.0483795817	 1.2585065886	 0.4938318095	-0.49289
C	 0.0255026424	 0.0420186498	 0.1525286965	 0.289793
N	-1.1710273769	-0.6958484779	 0.1007229014	-0.303295
C	-1.387872663	-1.9921690298	-0.2437877714	 0.123757
N	-0.5831872608	-2.9983834879	-0.2322626412	-0.269497
C	 0.7190477573	-2.8886783557	 0.1972639052	 0.084998
N	 1.5670460257	-1.9286984875	 0.1177247056	-0.251662
C	 1.30316798	-0.6509677059	-0.3324883018	 0.305756
O	 2.0848715668	 0.0030492697	-0.982036814	-0.304344
H	 0.8667493343	 1.6961045698	 0.3782376168	 0.254831
H	-1.9871308703	-0.1002362745	 0.1777350505	 0.276807
H	-2.4225924511	-2.1817785081	-0.5287625643	 0.145645
H	 1.0865248073	-3.8160633405	 0.6392936072	 0.1401
67.3588	121.52	288.2161	304.2337	340.165	388.7765	486.048	570.1965	611.5769	692.712	703.2907	789.9233	826.8	895.1817	908.9887	970.5641	1016.1656	1025.4696	1047.0763	1177.753	1249.6682	1371.4187	1443.4256	1460.9776	1497.9864	1622.2602	1696.6429	1724.2715	1787.1818	3126.3766	3140.799	3490.4104	3569.2908
N=C1NC=NC=NC1=O	[NH][C]1NC=NC=NC1=O	
InChI=1S/C4H4N4O/c5-3-4(9)8-2-6-1-7-3/h1-2H,(H2,5,6,7,8,9)	InChI=1S/C4H4N4O/c5-3-4(9)8-2-6-1-7-3/h1-2H,(H2,5,6,7,8,9)
