20
gdb 91925	2.45686	1.45595	1.02379	1.5937	73.93	-0.2466	0.0649	0.3116	1177.9072	0.173008	-440.269217	-440.260864	-440.25992	-440.301895	33.166	
O	-0.1429852934	 1.4643915009	-0.0408080948	-0.441174
C	 0.0123771704	 0.0520157043	-0.0008456642	 0.123468
C	-1.3985834517	-0.5437432835	 0.0140850141	-0.200563
C	-1.4026681808	-2.0443252281	-0.2368669133	-0.048239
N	-1.3023449622	-2.4841073511	-1.6451148033	-0.344861
C	-0.1860021094	-2.7541272386	-0.7201434411	-0.053477
C	 1.0833385014	-1.9915659618	-1.0495094859	 0.133678
O	 1.7001957683	-2.5295875413	-2.2115543898	-0.444162
C	 0.8212741355	-0.4842273925	-1.1859863498	-0.263947
H	 0.7347206875	 1.8584458742	-0.0705829462	 0.278786
H	 0.525676238	-0.2429286726	 0.9318307465	 0.060248
H	-1.8728050895	-0.3237864904	 0.9753756917	 0.102706
H	-1.9878120992	-0.0403076071	-0.7598893717	 0.121458
H	-2.0722640918	-2.6214514507	 0.3964669712	 0.087053
H	-1.8516254329	-3.3266425593	-1.7890418897	 0.232997
H	-0.0300623508	-3.7833169437	-0.4043015973	 0.08552
H	 1.8053379911	-2.1585719336	-0.2403982975	 0.085283
H	 1.0265754923	-2.5035903523	-2.9025506507	 0.284144
H	 0.2702381499	-0.2902071886	-2.1129499851	 0.113162
H	 1.7849181373	 0.0336680458	-1.2598934131	 0.08792
96.592	157.5239	221.5241	275.5064	303.8325	356.7355	403.7092	416.395	433.5909	450.232	487.1763	626.9037	644.2398	784.3207	827.3105	872.8629	903.7187	911.8324	946.0756	985.7488	1037.0872	1055.3256	1072.5544	1082.7743	1110.92	1139.4101	1155.1952	1181.55	1209.4554	1235.4853	1261.9476	1272.9538	1295.8661	1322.0477	1341.8144	1374.3204	1388.6912	1403.295	1428.8009	1445.8334	1453.6251	1477.9457	1491.8016	2937.077	3033.2182	3035.0994	3048.1742	3083.8834	3092.1293	3126.3438	3137.214	3508.3428	3780.3262	3815.4827
OC1CC2NC2C(O)C1	O[C@H]1C[C@H]2N[C@H]2[C@@H](O)C1	
InChI=1S/C6H11NO2/c8-3-1-4-6(7-4)5(9)2-3/h3-9H,1-2H2	InChI=1S/C6H11NO2/c8-3-1-4-6(7-4)5(9)2-3/h3-9H,1-2H2/t3-,4+,5-,6+/m0/s1
