20
gdb 72469	2.62283	1.84447	1.4909	2.0272	77.69	-0.2427	0.0268	0.2695	975.4381	0.173987	-403.18637	-403.178965	-403.17802	-403.21772	30.465	
C	-0.0826825787	 1.492474987	 0.0129806556	-0.448544
C	 0.0178565451	-0.0267551543	 0.0024280295	 0.303346
C	 0.8023457441	-0.6040015836	-1.2032654975	-0.223248
C	 1.2864951885	-2.0072065166	-0.721790702	-0.230494
C	 0.8150879664	-2.0989224931	 0.7411041683	 0.107094
C	 0.7743285552	-0.6412522711	 1.1984450809	-0.265436
O	-0.529838333	-2.6420354619	 0.7954890466	-0.242039
C	-1.4887530551	-1.7805884861	 0.3792469713	 0.110905
N	-1.3550736956	-0.5867887189	-0.0194821418	-0.292147
H	 0.9107622591	 1.9524959547	 0.038737328	 0.101878
H	-0.6089723524	 1.8442409756	-0.8794157256	 0.12197
H	-0.6471406402	 1.8345785091	 0.8855998675	 0.117469
H	 0.1651269176	-0.6579146476	-2.0887560343	 0.111119
H	 1.6519437719	 0.0432111096	-1.4454648219	 0.094357
H	 0.8746782965	-2.8323177254	-1.3073944301	 0.114472
H	 2.3768114408	-2.0885910943	-0.7671417414	 0.103941
H	 1.4107698702	-2.7706103033	 1.3600600362	 0.084221
H	 1.7899058648	-0.2394209731	 1.2809680049	 0.098825
H	 0.2593527108	-0.5014383311	 2.152468044	 0.10887
H	-2.4678363362	-2.2542550755	 0.4265128419	 0.12344
131.3498	233.4468	264.0774	307.0892	351.2321	394.1743	430.248	454.7532	585.1764	612.6831	717.1102	765.0311	787.0438	830.2149	877.6957	887.8402	905.112	927.0121	956.3568	970.4286	981.1802	1033.8525	1044.511	1099.8389	1139.6073	1161.3041	1189.9764	1230.1399	1235.6607	1269.3691	1285.7111	1290.4159	1334.481	1354.917	1370.015	1401.3957	1411.6947	1476.5094	1479.5878	1484.2027	1496.2735	1502.7272	1710.9833	3034.3113	3044.9672	3049.8861	3061.3901	3097.9552	3105.1937	3108.5391	3111.0119	3111.5758	3117.5448	3156.7206
CC12CCC(C1)OC=N2	C[C@@]12CC[C@@H](C1)OC=N2	
InChI=1S/C7H11NO/c1-7-3-2-6(4-7)9-5-8-7/h5-6H,2-4H2,1H3	InChI=1S/C7H11NO/c1-7-3-2-6(4-7)9-5-8-7/h5-6H,2-4H2,1H3/t6-,7+/m0/s1
