19
gdb 81757	3.0871	1.26045	1.07329	4.5282	81.85	-0.2252	0.0189	0.2441	1180.6064	0.158906	-382.042982	-382.034122	-382.033178	-382.076139	33.489	
C	-0.6712294872	 1.5218651458	-0.593655017	-0.417182
C	-0.2690809367	 0.077322238	-0.3408151387	-0.009554
N	 1.012794875	-0.4476541467	-0.9171057568	-0.084237
C	 1.8400374843	 0.3545446506	-1.7999743822	-0.330903
C	 1.5228412783	-0.7968119086	 0.3952425103	-0.048616
C	 1.568210144	 0.3480036625	 1.3633398224	-0.344162
C	 0.2312391387	-0.3118471834	 1.0685706849	 0.167807
C	-0.5619105471	-0.9414366295	 2.0684333845	 0.189158
N	-1.2280817044	-1.4406316634	 2.8734721282	-0.352686
H	 0.0848012306	 2.2358297578	-0.2575368322	 0.121858
H	-0.8507786964	 1.6934047219	-1.6597971555	 0.128797
H	-1.6029351591	 1.7386254039	-0.0617221893	 0.137181
H	-1.0884407364	-0.5845475003	-0.6433513131	 0.103479
H	 2.1890430343	 1.3092607247	-1.3720615982	 0.098593
H	 2.7239554204	-0.2300815724	-2.0757142636	 0.129615
H	 1.2899263073	 0.5735350517	-2.7199825032	 0.127935
H	 2.0619702942	-1.7237014611	 0.5598313822	 0.118922
H	 1.971563742	 0.1127707719	 2.3426596215	 0.140777
H	 1.7515359485	 1.3642555165	 1.0300480559	 0.123215
109.3811	139.9619	191.9634	212.8153	236.3103	245.3937	273.1377	369.6088	472.0836	503.8998	540.4167	565.6493	611.8277	671.8424	765.6784	828.0569	888.3858	914.0923	986.0256	1000.4419	1039.6997	1064.8583	1088.1564	1106.219	1121.7771	1154.4113	1206.3346	1218.7414	1233.6861	1272.1782	1315.3543	1366.1381	1391.9568	1414.5313	1452.7065	1476.612	1488.5101	1492.3857	1502.6462	1508.3539	2344.4385	2963.1011	3036.0958	3042.0756	3064.8556	3104.6062	3110.4686	3119.453	3132.061	3171.1037	3221.0586
CC1N(C)C2CC12C#N	C[C@H]1N(C)[C@H]2C[C@@]12C#N	
InChI=1S/C7H10N2/c1-5-7(4-8)3-6(7)9(5)2/h5-6H,3H2,1-2H3	InChI=1S/C7H10N2/c1-5-7(4-8)3-6(7)9(5)2/h5-6H,3H2,1-2H3/t5-,6+,7-/m1/s1
