19
gdb 37597	2.83102	2.37807	2.04025	0.3955	76.09	-0.2081	0.0966	0.3047	800.4531	0.165666	-382.039673	-382.034217	-382.033272	-382.069058	24.933	
C	-0.0019313955	 1.5643112964	 0.0089460708	-0.21427
C	 1.5392337889	 1.6567404482	 0.0349502932	 0.002653
C	 1.7786744393	 0.9229453974	 1.3447025982	-0.16914
N	 1.0102971253	-0.3404729994	 1.1059831261	-0.107374
C	 1.9762074105	-1.262130152	 0.4820672504	-0.205699
C	 2.164449138	-0.6788542581	-0.9095088177	-0.042229
C	 0.8363469893	-0.1780831739	-1.3040190718	-0.034128
C	 0.0357996756	 0.0248639002	-0.0086528429	-0.03196
N	 1.9490976793	 0.7851711986	-1.1313668193	-0.134702
H	-0.4780449694	 2.0079217734	 0.8871238584	 0.102291
H	-0.4532878487	 1.9731580284	-0.897640274	 0.106831
H	 1.9820645359	 2.647861245	-0.0701455466	 0.07246
H	 2.8277764427	 0.6989470307	 1.5484141282	 0.10143
H	 1.3797080504	 1.47692693	 2.2021921972	 0.097106
H	 2.8784526146	-1.3329835181	 1.09430562	 0.107263
H	 1.5569391223	-2.273228541	 0.3925776333	 0.102038
H	 2.8528220491	-1.1331281476	-1.6164466194	 0.090817
H	 0.3663343389	-0.2952759413	-2.2763498075	 0.083726
H	-0.9068542865	-0.5154089668	 0.0801216533	 0.07289
297.7234	455.9655	468.2716	529.0287	604.4607	618.1237	693.8031	748.2773	766.3748	814.0064	840.1374	861.0582	902.1392	907.7881	931.3486	952.6639	958.447	971.1951	978.9437	1002.6183	1036.4043	1045.6956	1077.6151	1087.9811	1119.0608	1144.1716	1202.6181	1213.0563	1229.7852	1256.8114	1266.8843	1279.7174	1294.9705	1301.7679	1312.2249	1321.3621	1341.9897	1399.0399	1492.7695	1507.5081	1532.0078	3017.8546	3032.3659	3068.2079	3086.9632	3104.2139	3108.4885	3113.7033	3123.8162	3141.7754	3155.7339
C1C2CN3CC4C(C13)N24	C1[C@H]2CN3C[C@H]4[C@@H]([C@H]13)N24	
InChI=1S/C7H10N2/c1-4-2-8-3-6-7(5(1)8)9(4)6/h4-7H,1-3H2	InChI=1S/C7H10N2/c1-4-2-8-3-6-7(5(1)8)9(4)6/h4-7H,1-3H2/t4-,5-,6-,7+,9?/m0/s1
