17
gdb 125526	5.68483	1.00624	0.92259	2.509	76.41	-0.2612	-0.0175	0.2437	1293.1409	0.136768	-414.170022	-414.161722	-414.160778	-414.205367	29.334	
C	 0.1783207662	 1.4491799118	 0.010299863	-0.478292
C	 0.0404161444	-0.0339468013	-0.0191064287	 0.386396
N	 0.046230467	-0.7594440146	-1.137377867	-0.300082
N	-0.1015884292	-1.9909885257	-0.6602352621	 0.124984
N	-0.1943188147	-2.0459410809	 0.658588115	-0.141787
N	-0.1057007091	-0.807265602	 1.0833922518	-0.257873
C	-0.1538505659	-3.1461544358	-1.514389541	 0.08561
C	 0.4521550469	-4.4412778413	-1.0477584068	-0.275362
C	-1.0464506039	-4.2998047539	-1.1473758511	-0.275357
H	 1.0549094857	 1.7449282017	 0.5941292498	 0.148185
H	 0.2824375664	 1.8359519802	-1.0044922875	 0.144577
H	-0.696970595	 1.9101419598	 0.4773300563	 0.148183
H	-0.0564601657	-2.8413733542	-2.5467030152	 0.13201
H	 0.9778638696	-5.0395187196	-1.7830307665	 0.128036
H	 0.8826356643	-4.4419315489	-0.0536042901	 0.15137
H	-1.5961547692	-4.2079232882	-0.2183761977	 0.151364
H	-1.5733329779	-4.7986777773	-1.9526133922	 0.128036
18.2134	30.9834	141.5094	176.3333	282.3496	309.4263	432.4376	455.398	626.7177	714.8678	730.5747	732.9402	781.4744	820.1908	917.9756	952.5049	1002.1636	1053.1621	1068.9888	1071.1365	1079.7178	1088.648	1098.2737	1121.7425	1200.8217	1220.526	1235.4198	1265.4425	1372.2326	1402.6177	1424.1096	1439.8202	1454.9873	1479.2445	1486.8212	1497.0628	1543.06	3052.1399	3110.5085	3145.0798	3146.4808	3147.5519	3221.718	3233.6256	3247.0087
CC1=NN(N=N1)C1CC1	Cc1nn(nn1)C1CC1	
InChI=1S/C5H8N4/c1-4-6-8-9(7-4)5-2-3-5/h5H,2-3H2,1H3	InChI=1S/C5H8N4/c1-4-6-8-9(7-4)5-2-3-5/h5H,2-3H2,1H3
