16
gdb 71541	2.61025	1.55646	1.45789	1.467	76.63	-0.2361	0.023	0.2591	979.9265	0.123467	-400.618985	-400.611386	-400.610442	-400.650715	30.454	
O	 0.110792539	 1.3223985189	-0.1300533999	-0.461128
C	 0.0937616554	-0.042290616	-0.1096647821	 0.397132
C	 0.6063128277	-0.9637678783	-1.2164012304	-0.312677
C	 0.0759454173	-1.9354501496	-0.1349649447	-0.114494
C	 0.5313461025	-1.0152472245	 1.0419583404	-0.119064
N	-0.8087027795	-0.917152212	 1.7067382673	-0.400236
C	-1.1351170801	-0.9994215568	 0.2364594864	 0.209663
C	-2.4556614025	-0.9985285836	-0.3035657414	 0.083387
C	-3.564799271	-0.9917031116	-0.7709762567	-0.374489
H	-0.2893404698	 1.630771869	 0.6938262105	 0.299983
H	 0.0594967602	-0.9397539057	-2.1620580758	 0.114982
H	 1.6865669249	-0.9650356752	-1.3843481278	 0.104648
H	 0.0512010785	-3.0234274808	-0.1366466167	 0.089273
H	 1.4728528175	-1.0346144534	 1.5897814324	 0.087424
H	-1.0493996805	-1.7988998196	 2.1682049393	 0.21204
H	-4.5440277095	-0.9819140708	-1.1817370108	 0.183554
120.5156	141.6955	269.5076	312.2257	369.6375	398.1781	490.1159	512.6946	540.0163	597.2632	610.3555	669.1819	693.751	714.6528	792.2211	850.7127	893.3677	922.8424	939.6189	983.9545	1009.4039	1029.4152	1064.1052	1122.2771	1141.333	1144.3183	1199.7119	1220.2132	1251.836	1268.5345	1295.4163	1344.7719	1408.8248	1515.1295	2227.5972	3060.0677	3122.2176	3125.9308	3144.6869	3403.1912	3501.0268	3773.1124
OC12CC3C1NC23C#C	O[C@@]12C[C@H]3[C@@H]1N[C@@]23C#C	
InChI=1S/C7H7NO/c1-2-6-4-3-7(6,9)5(4)8-6/h1,4-5,8-9H,3H2	InChI=1S/C7H7NO/c1-2-6-4-3-7(6,9)5(4)8-6/h1,4-5,8-9H,3H2/t4-,5-,6+,7-/m0/s1
