12
gdb 129140	3.94796	1.28689	0.98704	5.2243	75.87	-0.2562	-0.0812	0.175	1094.2614	0.077836	-427.77775	-427.770429	-427.769485	-427.809843	27.083	
N	 0.0284853997	 1.2789393392	 0.2195577491	-0.477556
C	-0.0307449491	 0.0474975984	-0.0777718387	 0.382746
N	 1.1720147247	-0.6908323613	-0.4005422963	-0.186657
N	 1.2036809989	-1.9221691583	-0.2084699317	-0.042832
N	 0.0432442034	-2.5264224447	 0.2471816039	-0.30016
C	-1.1713776034	-1.9045453159	 0.0216617413	 0.259655
N	-1.245159731	-0.6320939037	-0.1602420086	-0.288114
C	-2.3163832473	-2.7559711047	-0.0215915692	 0.242603
C	-3.2486343018	-3.514650027	-0.0298066114	-0.336435
H	 1.0046815327	 1.5803959605	 0.1829808422	 0.236006
H	 0.1075406606	-3.5339395739	 0.2481687988	 0.286877
H	-4.0898350572	-4.1649551486	-0.0456159095	 0.223868
106.0669	126.4624	146.9935	335.54	405.3039	473.1049	495.2588	553.4548	586.4479	621.0699	668.8514	689.6263	704.8869	741.7532	797.7386	883.952	929.8489	960.9707	1034.3699	1113.9841	1243.902	1320.6348	1408.3731	1603.5747	1657.0056	1727.658	2241.4024	3470.6161	3493.1385	3623.8478
N=C1N=NNC(=N1)C#C	[NH][C@@H]1N=NNC(=N1)C#C	
InChI=1S/C4H3N5/c1-2-3-6-4(5)8-9-7-3/h1H,(H2,5,6,7,8)	InChI=1S/C4H4N5/c1-2-3-6-4(5)8-9-7-3/h1,4-5H,(H,6,7,8)/t4-/m0/s1
