16
gdb 75700	2.29421	2.10153	1.19281	1.5927	71.76	-0.2569	-0.021	0.2359	1002.3496	0.125963	-434.09168	-434.083979	-434.083035	-434.123886	28.894	
C	 0.0082723652	 1.4385040241	 0.0216304465	-0.368015
N	-0.0080626856	-0.0080486441	-0.0143324088	-0.128223
C	-0.0025221437	-0.7715337629	-1.1909538518	 0.388126
N	 0.0263387403	-0.3906951642	-2.3959782595	-0.532716
N	-0.0435539427	-2.1606959554	-0.8372214133	-0.113662
C	 1.1983737221	-2.6000297832	-0.1756188576	-0.242408
C	 0.0113061798	-2.2080435108	 0.6349537932	-0.162296
C	-0.0270216144	-0.7926214222	 1.1346516211	 0.42506
O	-0.0955434019	-0.3870203764	 2.2694066024	-0.371241
H	 0.9216696532	 1.8340504971	-0.4354195835	 0.141444
H	-0.8595819793	 1.8482562075	-0.5050019382	 0.146272
H	-0.0319704226	 1.7357251605	 1.0706204257	 0.173704
H	 0.0660884133	 0.6248858104	-2.4690959743	 0.222945
H	 1.4244948343	-3.6539669067	-0.2978095694	 0.14517
H	 2.0547706395	-1.9318987311	-0.1997156332	 0.140887
H	-0.5885282877	-2.9489560327	 1.1502816209	 0.134952
114.8971	156.0344	181.4536	222.4783	289.6406	342.4776	383.9108	531.6825	606.7765	654.8158	726.4123	743.2719	775.8113	819.1963	835.1968	863.3752	974.575	988.4193	1017.3039	1068.8922	1111.2543	1149.8109	1156.9358	1165.9378	1212.256	1266.9288	1299.8348	1342.6807	1411.3007	1454.1074	1492.7876	1505.1204	1513.6903	1754.5533	1844.5096	3034.3494	3095.271	3121.9429	3150.0722	3190.3306	3218.0495	3502.8963
CN1C(=N)N2CC2C1=O	CN1[C]([NH])N2C[C@H]2C1=O	
InChI=1S/C5H7N3O/c1-7-4(9)3-2-8(3)5(7)6/h3,6H,2H2,1H3	InChI=1S/C5H7N3O/c1-7-4(9)3-2-8(3)5(7)6/h3,6H,2H2,1H3/t3-,8?/m0/s1
