17
gdb 36024	1.90835	1.42676	0.96138	1.51	78.72	-0.2582	0.0426	0.3007	1250.8207	0.131978	-384.599626	-384.590138	-384.589194	-384.634487	34.931	
C	-0.166677827	-0.8825159845	-0.6258347225	-0.445703
C	 0.1424252338	 0.2776059788	-0.6762534506	 0.309638
C	 0.5371277318	 1.6815879512	-0.7274037633	-0.421761
C	 1.5460191231	 2.056423594	 0.3550716907	 0.417511
C	 2.8648472412	 1.2867509646	 0.3429929678	-0.426652
C	 3.6644897254	 1.5601996504	-0.8454700181	 0.308684
C	 4.3056431711	 1.8027517505	-1.832746717	-0.459066
C	 1.501094918	 3.3979542425	 0.9467298272	-0.227676
O	 0.9970593966	 2.2576649024	 1.654886025	-0.271011
H	-0.4517261632	-1.9045343345	-0.5837625016	 0.199866
H	 0.9773649476	 1.9057967595	-1.7070552092	 0.149662
H	-0.3460467328	 2.3197639419	-0.6153750245	 0.137142
H	 3.4217285747	 1.5504829238	 1.2485015991	 0.140115
H	 2.642788512	 0.2144385206	 0.4059876403	 0.153073
H	 4.8821636938	 2.0077130399	-2.7006033461	 0.19991
H	 2.4104580606	 3.8383330059	 1.3525935539	 0.119845
H	 0.7477194934	 4.1116644329	 0.6167097688	 0.116423
41.2385	87.3869	131.7477	141.5466	315.4802	323.9003	338.6372	360.8291	363.6751	389.5779	476.6829	581.4498	620.3721	624.5653	648.8602	651.4303	760.5656	843.8523	894.2166	909.2624	963.4938	976.7267	983.5624	1023.2769	1126.7351	1160.6919	1184.304	1217.8135	1284.0946	1316.5884	1335.304	1428.6326	1452.1832	1466.7059	1533.0035	2239.0694	2239.993	3033.5034	3036.8556	3075.8462	3078.3853	3085.3622	3172.0995	3505.7415	3506.1868
C#CCC1(CC#C)CO1	C#CCC1(CC#C)CO1	
InChI=1S/C8H8O/c1-3-5-8(6-4-2)7-9-8/h1-2H,5-7H2	InChI=1S/C8H8O/c1-3-5-8(6-4-2)7-9-8/h1-2H,5-7H2
