21
gdb 122095	2.99112	0.69821	0.58532	1.1717	82.3	-0.2614	0.0383	0.2997	1888.9275	0.178706	-424.173672	-424.16241	-424.161466	-424.211046	39.154	
C	-0.2160637862	 1.4080469473	-0.113579677	-0.23731
O	 0.1666682586	 0.0598618978	 0.0606981969	-0.230168
C	 0.7042444549	-0.5450592572	-1.1047610891	-0.077348
C	 1.2984964668	-1.8980227334	-0.6877677265	-0.205119
C	 2.4535521029	-1.7534354842	 0.3054570244	-0.170413
C	 3.0154015778	-3.0986014829	 0.7450313133	-0.081313
O	 4.0864342207	-2.8510475443	 1.6435483616	-0.421234
C	-0.3089266125	-0.7045129107	-2.1586394875	 0.337272
C	-1.1402767789	-0.8431216338	-3.0160027048	-0.456891
H	 0.6373289037	 2.0331116502	-0.4195236601	 0.104328
H	-1.0117355849	 1.5121790203	-0.8634888297	 0.119838
H	-0.585045519	 1.7605100001	 0.852191105	 0.12859
H	 1.5151538624	 0.0912729757	-1.5025573831	 0.090365
H	 0.489713489	-2.4981825351	-0.2550880215	 0.115925
H	 1.6308392382	-2.4156412553	-1.5947955965	 0.107191
H	 3.2665337314	-1.1686811325	-0.1433062911	 0.100562
H	 2.1155681751	-1.2028566343	 1.1879056352	 0.126536
H	 2.2209127347	-3.693579795	 1.2250610753	 0.085824
H	 3.3583400157	-3.6675763526	-0.1355840437	 0.081195
H	 4.4358336646	-3.6980279527	 1.9350620577	 0.284782
H	-1.8727035047	-0.9631755273	-3.7757977686	 0.197389
62.7922	68.1035	82.8845	114.6423	144.5272	165.6564	207.2297	256.186	260.3654	276.1787	313.8955	405.894	481.2047	574.9782	590.2012	626.7392	672.1226	755.43	827.6718	916.1566	970.1605	1027.0949	1047.3265	1059.5232	1088.9128	1136.1617	1149.6744	1184.2591	1204.9452	1227.1652	1240.0514	1288.67	1306.0274	1315.7064	1344.8793	1365.6312	1394.6925	1464.1578	1475.7984	1479.4128	1484.4704	1502.4547	1510.5537	1529.8412	2229.2493	2941.3599	2954.6882	2980.2681	2982.5409	3033.5171	3041.4558	3043.723	3077.6024	3104.1847	3120.7442	3502.4887	3830.734
COC(CCCO)C#C	CO[C@@H](CCCO)C#C	
InChI=1S/C7H12O2/c1-3-7(9-2)5-4-6-8/h1,7-8H,4-6H2,2H3	InChI=1S/C7H12O2/c1-3-7(9-2)5-4-6-8/h1,7-8H,4-6H2,2H3/t7-/m1/s1
