16
gdb 19015	4.88983	1.90789	1.71807	1.6373	63.24	-0.2353	0.0693	0.3046	789.3548	0.131039	-383.672461	-383.666244	-383.6653	-383.702597	24.935	
C	-0.0883594144	 1.543766825	-0.0644633675	-0.397726
C	 0.018174949	 0.0297715208	 0.0308883349	 0.107021
O	 0.8560082537	-0.4859651537	-1.0429550679	-0.287284
C	 1.8535762276	-1.1892836439	-0.3571612086	 0.095991
C	 1.2770074153	-1.9373348688	 0.8833937314	 0.021145
O	 2.5233002422	-1.7249314927	 1.6224599549	-0.316754
C	 2.2864063761	-0.4485733329	 0.9435756109	 0.026434
C	 0.754974463	-0.5134927061	 1.2486327128	-0.083884
H	 0.8921374698	 2.0147525447	 0.055060819	 0.121039
H	-0.4901595732	 1.8335459725	-1.0393169627	 0.131462
H	-0.7568287067	 1.9317044523	 0.711291616	 0.117517
H	-0.9776422686	-0.4225430035	-0.0698285672	 0.085921
H	 2.5789808197	-1.652976255	-1.0219328815	 0.102121
H	 0.7822627343	-2.9044888967	 0.9685149246	 0.094744
H	 2.9997294035	 0.3593019595	 1.1025107083	 0.095211
H	 0.3892089688	-0.3083486613	 2.2530258827	 0.087043
153.3744	215.9952	271.5337	447.3459	479.5083	497.8956	670.121	706.9046	783.3385	812.424	833.9854	886.4131	890.0307	904.4467	927.5664	979.7578	1002.1648	1042.6637	1082.5782	1098.3212	1127.7984	1144.7744	1147.7896	1161.4934	1186.2549	1226.5481	1263.1491	1274.9517	1313.1889	1369.8858	1388.4537	1407.995	1486.4773	1494.0902	3014.4951	3038.2707	3109.8849	3119.036	3122.4567	3125.3989	3148.2431	3162.5234
CC1OC2C3OC2C13	C[C@H]1O[C@@H]2[C@H]3O[C@@H]2[C@@H]13	
InChI=1S/C6H8O2/c1-2-3-4-6(7-2)5(3)8-4/h2-6H,1H3	InChI=1S/C6H8O2/c1-2-3-4-6(7-2)5(3)8-4/h2-6H,1H3/t2-,3-,4-,5+,6+/m1/s1
