17
gdb 67254	3.13094	1.55997	1.30545	1.7401	72.12	-0.2187	0.0712	0.29	994.6418	0.137254	-417.890076	-417.882908	-417.881964	-417.921353	29.238	
O	-0.0848091346	 1.4355238336	-0.0340108387	-0.449972
C	 0.0145751173	 0.0768985634	 0.0136114129	 0.394772
C	 0.0562866448	-1.0174823833	-0.9998598701	-0.133092
N	 1.2611605692	-1.6252420887	-0.4238590753	-0.300422
C	 0.9008562584	-0.9572972803	 0.8626605918	-0.233863
C	-0.4295589094	-1.5901004157	 1.309885322	 0.418686
C	-0.6663795515	-2.824846601	 2.0818646646	-0.331367
N	-1.0095483484	-1.4885350026	 2.6406473367	-0.37626
C	-1.0717924071	-0.9676266926	 0.0943410333	-0.228549
H	 0.6846594739	 1.7820337885	-0.5016172982	 0.296138
H	-0.1666998109	-1.0103012832	-2.0595363459	 0.101175
H	 1.2054588157	-2.6432561082	-0.3462742727	 0.209668
H	 1.7054645383	-0.7549876666	 1.5707286818	 0.073158
H	-1.5243032185	-3.4564234276	 1.8671866551	 0.120541
H	 0.1928537356	-3.3532353972	 2.489865911	 0.108372
H	-0.3001444326	-1.2068893724	 3.3147050592	 0.229571
H	-2.11937777	-0.8708939661	-0.1560081373	 0.101444
128.8582	233.9593	292.8673	300.8881	347.899	386.5345	486.2669	535.747	593.4885	645.064	742.0518	787.1123	860.4649	872.2412	901.2414	910.5017	929.8921	943.3214	977.1722	1003.6514	1015.6911	1018.2827	1072.2089	1082.2724	1100.1399	1127.8897	1154.8604	1175.6614	1205.7517	1255.2251	1259.299	1296.7623	1318.998	1349.0697	1436.996	1498.3511	1519.3262	3098.6731	3110.6592	3183.5545	3195.4419	3219.1498	3415.9316	3478.5162	3779.5594
OC12C3NC1C1(CN1)C23	O[C@@]12[C@H]3N[C@@H]1[C@]1(CN1)[C@@H]23	
InChI=1S/C6H8N2O/c9-6-2-3(6)8-4(6)5(2)1-7-5/h2-4,7-9H,1H2	InChI=1S/C6H8N2O/c9-6-2-3(6)8-4(6)5(2)1-7-5/h2-4,7-9H,1H2/t2-,3-,4+,5-,6-/m0/s1
