14
gdb 28745	5.68428	0.9727	0.83145	5.0002	69.44	-0.1961	-0.0045	0.1915	1283.8476	0.102235	-470.058897	-470.05087	-470.049926	-470.091965	29.114	
N	-0.8159260015	 1.1188292384	 0.876562607	-0.588037
C	-0.2410652158	 0.043909631	 0.2407018145	 0.450482
N	-0.5955962153	-0.5336129185	-0.8575354419	-0.325911
C	 0.2715055803	-1.6285236825	-0.9708649003	-0.18476
C	 1.1122037976	-1.6227253926	 0.0860991992	 0.408764
N	 2.1752073165	-2.3920924922	 0.5363901569	-0.416138
C	 2.6742878248	-3.4762471263	-0.1337099955	 0.139376
O	 2.2512858073	-3.8816865336	-1.1924033036	-0.299029
O	 0.8013520636	-0.549215259	 0.8918031633	-0.227184
H	-0.164042795	 1.7136534396	 1.3688129059	 0.262532
H	-1.4283198578	 1.6356632027	 0.261662307	 0.272768
H	 0.2369862686	-2.322044253	-1.7908699482	 0.151151
H	 2.5803499407	-2.1337286679	 1.423036205	 0.266581
H	 3.5154819162	-3.9384818259	 0.4150699406	 0.089405
52.2868	151.5578	184.5777	257.8297	280.789	297.7337	367.0501	462.7699	510.0315	603.4612	635.1765	652.479	734.1808	766.6	833.6811	867.7258	980.1405	1000.0724	1006.7912	1076.5476	1152.8368	1190.2521	1244.812	1264.3442	1411.3767	1430.2482	1545.1698	1608.8472	1665.0287	1696.528	1800.1205	2964.8818	3313.4465	3564.0344	3632.1551	3670.2866
NC1=NC=C(NC=O)O1	Nc1ncc(NC=O)o1	
InChI=1S/C4H5N3O2/c5-4-6-1-3(9-4)7-2-8/h1-2H,(H2,5,6)(H,7,8)	InChI=1S/C4H5N3O2/c5-4-6-1-3(9-4)7-2-8/h1-2H,(H2,5,6)(H,7,8)
