18
gdb 49790	3.24079	1.36372	1.04188	3.8546	81.3	-0.2117	-0.0019	0.2098	1142.2138	0.150034	-401.976067	-401.968504	-401.96756	-402.008256	29.45	
O	-0.1029908333	 0.0295121311	-0.4874330834	-0.330533
C	 0.0149682425	 1.2247655907	-0.3330874438	 0.146076
N	 1.1351144815	 1.854084589	 0.1584313701	-0.07663
C	 2.2780075966	 1.1109748878	 0.4735465905	 0.028292
C	 3.3885512313	 1.6430177489	 0.9872595682	-0.144753
C	 3.5352110291	 3.0939337753	 1.3490263254	-0.286635
C	 2.3791936924	 3.9502385621	 0.8544226868	-0.05868
C	 2.1021696923	 4.082224312	-0.6263410899	-0.308364
C	 1.1654486272	 3.2905260964	 0.2584032165	 0.022818
H	-0.7875494447	 1.9495382418	-0.5664680873	 0.077894
H	 2.1658940366	 0.0589662798	 0.2475952083	 0.145287
H	 4.2257047464	 0.9839391858	 1.1885293641	 0.097739
H	 3.5978933318	 3.1854359563	 2.4427831843	 0.118362
H	 4.4882327986	 3.4895024247	 0.9700358578	 0.112002
H	 2.180469828	 4.8329134311	 1.4541916287	 0.096052
H	 1.7607733302	 5.0351705999	-1.0147611216	 0.119614
H	 2.7310500348	 3.5123372761	-1.3024189814	 0.130743
H	 0.1905817887	 3.7103224712	 0.4800391668	 0.110715
81.9982	153.101	247.2575	286.9138	298.8582	391.6421	437.3811	511.6862	562.7344	637.2875	747.1985	757.3762	822.5395	839.2739	871.4294	908.051	947.6908	983.9575	1006.3175	1018.7652	1037.5855	1059.2719	1080.8188	1121.9216	1133.4042	1188.6759	1223.7034	1240.5392	1291.5747	1346.2594	1355.4777	1372.1484	1414.5109	1444.4229	1454.2686	1481.6916	1493.7472	1729.0182	1796.0889	2955.5374	3000.0156	3018.578	3134.6669	3152.3118	3169.8952	3189.7064	3225.0499	3235.0461
O=CN1C=CCC2CC12	O=CN1C=CC[C@H]2C[C@@H]12	
InChI=1S/C7H9NO/c9-5-8-3-1-2-6-4-7(6)8/h1,3,5-7H,2,4H2	InChI=1S/C7H9NO/c9-5-8-3-1-2-6-4-7(6)8/h1,3,5-7H,2,4H2/t6-,7+/m0/s1
