20
gdb 39379	2.38938	1.69393	1.10001	2.2028	80.68	-0.2268	0.038	0.2648	1123.8262	0.173619	-403.132466	-403.124618	-403.123674	-403.164747	30.994	
C	-0.0331410449	 1.5661446184	 0.2399007212	-0.328322
C	 1.2971422657	 0.8724175665	 0.0968942966	 0.02312
C	 2.1882781354	 0.6588528606	 1.2986467293	-0.253665
C	 3.0807967471	-0.5890608228	 1.1979257166	-0.133993
N	 2.5765356717	-1.9306930736	 1.0567462443	-0.263377
C	 1.4804078749	-2.5227879894	 0.9135975822	 0.138073
O	 0.1543659961	-2.199749972	 0.8569270414	-0.230863
C	-0.3694449763	-0.8859051358	 1.0539770303	-0.08926
C	 0.0187979512	 0.0807278521	-0.0305449086	-0.01765
H	-0.3256743918	 1.8924537184	 1.2337719467	 0.111177
H	-0.375760067	 2.2168545599	-0.556616315	 0.115294
H	 1.8345554442	 1.0494389362	-0.831514895	 0.08562
H	 2.8609043155	 1.5197502714	 1.4106476893	 0.098125
H	 1.5963006233	 0.6278627285	 2.2195810978	 0.097207
H	 3.764395556	-0.4438393525	 0.3480291889	 0.114606
H	 3.7363480074	-0.6034743522	 2.0792183114	 0.112497
H	 1.506368413	-3.6092807741	 0.7935750139	 0.109394
H	-1.4530382406	-1.037846035	 1.0618053669	 0.115854
H	-0.0841904912	-0.5145951207	 2.044329083	 0.103758
H	-0.2654401096	-0.245253344	-1.0268693309	 0.092406
101.5686	155.2454	215.0468	270.739	289.4132	370.101	416.1802	466.5528	534.7668	555.4438	699.026	768.4432	806.4187	828.5387	860.	889.9398	916.7457	964.6187	978.6715	1002.2157	1039.7988	1049.4729	1060.4111	1073.6589	1138.8411	1147.6287	1163.4854	1185.7875	1226.9725	1251.7611	1290.8178	1299.8165	1354.558	1380.0672	1398.4627	1417.4001	1439.1919	1464.4871	1468.5273	1481.9001	1497.6382	1518.0772	1806.8685	2996.8522	3018.7132	3029.8999	3041.617	3069.7714	3086.5694	3094.6642	3126.4622	3134.8511	3152.6858	3212.47
C1C2CCN=COCC12	C1[C@H]2CCN=COC[C@@H]12	
InChI=1S/C7H11NO/c1-2-8-5-9-4-7-3-6(1)7/h5-7H,1-4H2/b8-5-	InChI=1S/C7H11NO/c1-2-8-5-9-4-7-3-6(1)7/h5-7H,1-4H2/b8-5-/t6-,7-/m1/s1
