21
gdb 98199	3.02002	1.06463	0.96165	2.66	75.95	-0.254	0.0181	0.2722	1355.2111	0.178083	-461.385092	-461.37382	-461.372876	-461.422139	39.194	
C	 0.0091762318	 1.3464288841	 0.0091094354	-0.240115
O	-0.040601967	-0.0849687071	 0.0019452427	-0.241749
C	-1.2853069234	-0.6165908448	 0.010956993	 0.430413
O	-2.2869512916	 0.043304466	 0.0240592192	-0.351602
C	-1.2068184152	-2.1568442938	 0.0020579635	 0.244663
C	-0.480791543	-2.6099202569	-1.2794442816	-0.431915
C	-0.4563839068	-2.6233737362	 1.2645348831	-0.431875
O	-2.5664139258	-2.5614173293	 0.0130169551	-0.261252
C	-2.835398094	-3.9450742782	 0.0076560477	-0.245311
H	 1.0675709258	 1.6074729336	 0.0003995258	 0.130965
H	-0.4934549805	 1.7542722792	-0.8715752168	 0.141448
H	-0.4765099899	 1.7447989139	 0.9035311156	 0.141449
H	 0.5067100232	-2.1493344052	-1.3387269428	 0.135995
H	-0.3507894192	-3.6955525373	-1.2884626938	 0.117677
H	-1.0584927408	-2.3215051517	-2.1623822457	 0.130832
H	-1.0169729274	-2.3442681794	 2.1613828123	 0.13083
H	-0.3264464469	-3.7090401815	 1.2596370444	 0.117672
H	 0.5321704313	-2.1634409298	 1.309682844	 0.135989
H	-2.4553111436	-4.4510074497	-0.8908794511	 0.106203
H	-2.4369880736	-4.4615139369	 0.8921664153	 0.106186
H	-3.9239437631	-4.040110689	 0.0182905351	 0.133498
44.7101	47.3944	117.7487	133.3162	169.1661	185.7363	240.795	249.3137	290.6386	299.9425	330.4857	353.0354	384.0993	427.4674	479.9214	637.7312	768.4441	786.3571	860.3137	924.2701	959.3718	1015.0752	1015.6326	1115.6254	1176.9922	1177.5464	1180.2075	1183.9201	1202.0408	1212.4948	1239.9487	1297.1733	1383.8893	1404.9197	1471.4341	1478.3608	1479.8842	1481.5763	1483.4917	1498.3571	1503.1452	1503.3172	1509.8287	1516.562	1842.8344	2993.4001	3040.0237	3050.2149	3050.9249	3051.5127	3113.0971	3117.7515	3120.6242	3125.7553	3140.0482	3144.5218	3157.1964
COC(=O)C(C)(C)OC	COC(=O)C(C)(C)OC	
InChI=1S/C6H12O3/c1-6(2,9-4)5(7)8-3/h1-4H3	InChI=1S/C6H12O3/c1-6(2,9-4)5(7)8-3/h1-4H3
