21
gdb 60117	3.91543	0.94189	0.85434	1.4738	81.14	-0.2115	0.0638	0.2753	1456.6214	0.183356	-420.436693	-420.427272	-420.426328	-420.471239	34.779	
C	-0.1152553007	 1.5303930183	 0.0884507314	-0.394014
C	 0.0229582641	 0.0174651794	 0.0082416879	 0.153301
C	 0.677342482	-0.5990154257	 1.2397851542	-0.396472
O	-1.328016774	-0.4956176766	-0.142576605	-0.288537
C	-1.4586850573	-1.6861201406	-0.7272594586	 0.473444
N	-0.5232615709	-2.4424523706	-1.16248956	-0.362745
C	-1.2038296233	-3.6092838616	-1.7427773611	-0.153865
C	-2.6736217184	-3.5342393639	-1.2364438908	-0.180533
N	-2.7719839963	-2.1081704766	-0.9058847523	-0.359072
H	 0.8720275132	 1.9931900034	 0.176603247	 0.118532
H	-0.6040880331	 1.9236343012	-0.8067632851	 0.124636
H	-0.7094599586	 1.8194449773	 0.9613145537	 0.121555
H	 0.580488428	-0.2748581596	-0.8861890946	 0.114207
H	 0.1044782316	-0.3596380426	 2.1418373818	 0.11356
H	 0.7408390188	-1.6831260897	 1.1297645563	 0.143423
H	 1.6909813376	-0.2041278065	 1.3616158841	 0.114907
H	-1.1662221709	-3.5544975026	-2.8393973652	 0.104282
H	-0.7103864274	-4.5401793154	-1.4483839917	 0.104458
H	-3.4059343979	-3.823479726	-1.994751268	 0.109528
H	-2.8250160396	-4.1673231823	-0.3503573528	 0.098977
H	-3.4335999569	-1.8189236093	-0.1996614012	 0.24043
64.8604	79.8652	160.5713	189.3822	214.3535	247.45	267.62	312.1535	390.5339	447.7605	494.9508	553.1504	707.9125	739.818	761.183	841.1696	874.3694	918.0614	932.6962	945.6089	951.8782	1005.2372	1058.2848	1096.928	1116.6721	1144.9006	1162.5725	1203.5974	1210.4803	1239.8202	1301.1558	1314.6017	1347.0148	1368.1678	1387.7979	1401.0023	1416.705	1478.3517	1481.8901	1487.2532	1496.3912	1506.2243	1513.1065	1533.3687	1707.868	2996.0297	3009.7192	3039.1647	3043.448	3071.8597	3073.9269	3085.9911	3107.1615	3118.73	3123.1253	3139.6125	3600.4873
CC(C)OC1=NCCN1	CC(C)O[C]1[N]CCN1	
InChI=1S/C6H12N2O/c1-5(2)9-6-7-3-4-8-6/h5H,3-4H2,1-2H3,(H,7,8)	InChI=1S/C6H12N2O/c1-5(2)9-6-7-3-4-8-6/h5H,3-4H2,1-2H3,(H,7,8)
