21
gdb 93862	2.17579	1.73848	1.11493	1.556	77.71	-0.2464	0.0745	0.3209	1155.1614	0.181901	-424.215715	-424.206659	-424.205715	-424.24979	34.335	
C	-0.5924397817	 1.4180550376	 0.0258492526	-0.430604
C	 0.1460778717	 0.0855043383	-0.0157433876	-0.067886
C	 1.2587133961	-0.019231537	-1.0634285374	-0.080883
O	 2.1160187353	-1.0801133614	-0.6439610479	-0.283408
C	 1.9369189413	-1.3513761078	 0.7513000606	 0.088024
C	 3.2849475369	-1.37301135	 1.4550999221	-0.413485
C	 0.9206287555	-0.3139060112	 1.2357818956	 0.385206
C	 1.1089164552	 0.5467389674	 2.4110946087	-0.249012
O	 0.2153478568	-0.5774183901	 2.4408707398	-0.289776
H	 0.1005404507	 2.2586400635	 0.1390044956	 0.11773
H	-1.1615769747	 1.5771494707	-0.8953928017	 0.119548
H	-1.3002461676	 1.4414548229	 0.8605594503	 0.133248
H	-0.5785547325	-0.7195334272	-0.1999896247	 0.093455
H	 0.8867738277	-0.250764766	-2.0668005271	 0.106666
H	 1.822196785	 0.926543286	-1.1217943739	 0.088023
H	 1.4661401883	-2.3418956924	 0.8539462579	 0.085804
H	 3.7821793536	-0.4011082129	 1.3831710005	 0.116517
H	 3.1615401809	-1.6342593529	 2.5113012502	 0.123282
H	 3.9316126118	-2.1238588223	 0.9931583588	 0.127104
H	 2.0014167021	 0.4463481048	 3.0247349409	 0.116148
H	 0.6271722477	 1.5212634298	 2.4559895068	 0.114297
36.6284	116.8947	217.7526	235.4962	260.8694	274.4143	299.7042	318.4282	427.1835	457.6193	499.9635	546.914	623.1451	712.486	844.6697	869.2823	893.9757	917.8154	935.2047	970.4861	1024.7176	1054.6101	1083.4493	1115.8283	1132.3355	1133.5262	1149.369	1160.2115	1172.2439	1214.3506	1233.3808	1316.6882	1340.5308	1351.8483	1392.4243	1395.6527	1404.8658	1411.3702	1427.7451	1489.9657	1496.1852	1500.0303	1503.6975	1525.5228	1536.9448	2967.1208	2976.7911	3016.1072	3033.3051	3038.4959	3067.1795	3096.9728	3102.904	3105.3153	3112.391	3119.73	3182.5096
CC1COC(C)C11CO1	C[C@H]1CO[C@@H](C)[C@]21CO2	
InChI=1S/C7H12O2/c1-5-3-8-6(2)7(5)4-9-7/h5-6H,3-4H2,1-2H3	InChI=1S/C7H12O2/c1-5-3-8-6(2)7(5)4-9-7/h5-6H,3-4H2,1-2H3/t5-,6-,7+/m0/s1
