16
gdb 24258	3.92769	1.5811	1.22853	1.6803	74.83	-0.2063	0.0169	0.2232	981.0303	0.12802	-400.745559	-400.739279	-400.738335	-400.776083	25.851	
C	-0.052512991	 1.5556184993	-0.0127325638	-0.359048
C	 1.4567571183	 1.8801968386	-0.0275418172	-0.017583
N	 2.2039525355	 1.4209444572	 1.1607671827	-0.326691
C	 2.2611015278	 0.6164460672	-0.0968055231	-0.232317
C	 1.222703994	-0.4267784713	-0.1096621851	 0.381981
C	-0.045938234	 0.0465185123	-0.0262008627	 0.229917
C	-0.8866095039	-1.1059324468	 0.0786563377	-0.355601
C	-0.0396397284	-2.1755799662	 0.0318302929	-0.013641
O	 1.2675694803	-1.7765608181	-0.0727913477	-0.202889
H	-0.5307476195	 1.9749711107	 0.8792389264	 0.124519
H	-0.5528884517	 1.9894282667	-0.8872852681	 0.108115
H	 1.7929774726	 2.7810395272	-0.5299429338	 0.090988
H	 3.0590122773	 1.9712887117	 1.2333712458	 0.228215
H	 3.1939034958	 0.5361150644	-0.6428225874	 0.100237
H	-1.9613574472	-1.1576549266	 0.1609059329	 0.11143
H	-0.1961162357	-3.2416242764	 0.0384425807	 0.132368
149.7229	238.8785	346.7909	417.1304	452.259	590.6965	615.3581	694.5593	710.2581	737.5359	778.771	808.8989	821.5256	843.606	882.6449	921.2535	930.2333	992.5961	1043.8108	1062.3127	1089.742	1131.6186	1156.3769	1173.5863	1189.4025	1225.8446	1245.8995	1299.886	1310.173	1370.3632	1417.5538	1474.6429	1477.8298	1509.3937	1635.2176	3029.0203	3070.3335	3165.0539	3180.802	3250.0888	3283.2807	3469.3459
C1C2NC2C2=C1C=CO2	C1[C@H]2N[C@H]2c2c1cco2	
InChI=1S/C7H7NO/c1-2-9-7-4(1)3-5-6(7)8-5/h1-2,5-6,8H,3H2	InChI=1S/C7H7NO/c1-2-9-7-4(1)3-5-6(7)8-5/h1-2,5-6,8H,3H2/t5-,6-/m1/s1
