21
gdb 121382	3.39911	1.06457	0.95386	0.5668	80.91	-0.2436	0.0104	0.2541	1345.1788	0.182536	-424.224343	-424.215067	-424.214123	-424.259445	33.986	
C	-0.1623886076	 1.0783717133	 0.2033513496	-0.37956
C	 0.9227452632	 0.0633447949	-0.1475762576	-0.059893
O	 1.3874135419	-0.6568732048	 0.993750825	-0.260046
C	 0.6131471672	-1.793624	 1.329727398	 0.179619
O	 0.6763028137	-2.7733976202	 0.3130469562	-0.276362
C	 1.6867267337	-3.7780893958	 0.3849033806	-0.04903
C	 2.8049820338	-3.4858362761	 1.3919904837	-0.28014
C	 2.1868613055	-3.0638550356	 2.6985906625	-0.062152
C	 1.1193403879	-2.2729884408	 2.6655823387	-0.076191
H	 0.1953439845	 1.7723556162	 0.9695770814	 0.123827
H	-0.4413821161	 1.6559033099	-0.6844908833	 0.112848
H	-1.0679420468	 0.5917730354	 0.5793865107	 0.118904
H	 0.5772124393	-0.6386493795	-0.9157602671	 0.11069
H	 1.8028477489	 0.579629069	-0.5450846496	 0.100786
H	-0.449901897	-1.5209913697	 1.3744430804	 0.071327
H	 1.2017996718	-4.7254453798	 0.6615094317	 0.097211
H	 2.0949496212	-3.8943874435	-0.6252129177	 0.10284
H	 3.4240642939	-4.3816111198	 1.5034825143	 0.100893
H	 3.4533453077	-2.6873896728	 1.0113036841	 0.131336
H	 2.6128168509	-3.4102773339	 3.6353455737	 0.095297
H	 0.6162336224	-1.9166306363	 3.5574107746	 0.097796
46.1494	58.6109	120.381	138.8318	213.8231	268.6239	298.3234	430.7014	453.3866	481.977	581.0173	594.777	706.9337	772.5132	807.0475	824.008	894.3896	902.5378	966.8851	980.3609	987.8428	1036.9494	1057.1412	1068.2914	1085.8011	1099.6025	1121.2214	1195.0882	1203.5018	1239.4046	1276.5216	1314.3215	1349.7704	1368.8242	1387.3717	1402.4989	1410.0883	1420.4163	1429.2856	1470.9521	1489.9108	1496.102	1512.3083	1518.6671	1721.4834	2997.4527	3012.4575	3032.0905	3035.157	3037.664	3058.5264	3074.8618	3081.7491	3105.3427	3118.0529	3167.9724	3197.975
CCOC1OCCC=C1	CCO[C@H]1OCCC=C1	
InChI=1S/C7H12O2/c1-2-8-7-5-3-4-6-9-7/h3,5,7H,2,4,6H2,1H3	InChI=1S/C7H12O2/c1-2-8-7-5-3-4-6-9-7/h3,5,7H,2,4,6H2,1H3/t7-/m0/s1
