17
gdb 70707	2.36451	1.87078	1.22781	2.4519	68.4	-0.2433	-0.0359	0.2074	1021.531	0.135286	-458.963032	-458.954924	-458.953979	-458.995682	30.436	
C	-0.0282797697	 1.5285780203	 0.0340804723	-0.477616
C	 0.1475432207	 0.0367530679	-0.0291185965	 0.271125
O	-0.7493804464	-0.7661988093	 0.7783315405	-0.283275
C	 0.6345658114	-0.7676638386	 1.1172578029	-0.030195
C	 1.3739803712	-2.0748776346	 0.8933725996	-0.104695
O	 1.7321640381	-2.3042977635	-0.4563377804	-0.250106
C	 0.6761004963	-2.0706290084	-1.374876984	-0.19621
C	 0.3287831527	-0.5828343933	-1.3957720053	 0.364727
O	 0.2120515973	 0.0580756595	-2.4126809568	-0.303587
H	 0.8688554722	 2.0339231504	-0.335221872	 0.138233
H	-0.8646352095	 1.8380598477	-0.5977249204	 0.147851
H	-0.2198983948	 1.8449843612	 1.061842841	 0.126866
H	 0.8646987652	-0.2360289761	 2.0415348946	 0.105116
H	 2.3125591494	-2.0719688893	 1.455456911	 0.12166
H	 0.7449520893	-2.8953473985	 1.2765144716	 0.111073
H	 1.0338008323	-2.3613127801	-2.3639335434	 0.136749
H	-0.2193540857	-2.6600992754	-1.1231388647	 0.122284
81.9187	160.9948	208.0527	214.5939	284.3905	313.4727	384.8273	451.5829	481.6238	506.5194	606.3032	653.1819	768.5134	784.6007	868.3536	890.3754	963.3671	982.1355	1021.4428	1074.8742	1087.8938	1116.2678	1138.919	1167.4812	1247.6659	1304.7876	1315.4521	1334.3669	1356.8134	1403.351	1414.1353	1451.5695	1469.8063	1476.6514	1487.2999	1490.884	1821.5421	2975.9705	2990.4386	3052.431	3085.1899	3107.0233	3123.7291	3126.052	3136.9048
CC12OC1COCC2=O	C[C@]12O[C@H]1COCC2=O	
InChI=1S/C6H8O3/c1-6-4(7)2-8-3-5(6)9-6/h5H,2-3H2,1H3	InChI=1S/C6H8O3/c1-6-4(7)2-8-3-5(6)9-6/h5H,2-3H2,1H3/t5-,6+/m0/s1
