23
gdb 74791	2.46479	1.60938	1.43879	0.3143	89.6	-0.2212	0.0291	0.2502	1083.3142	0.209636	-351.191526	-351.183667	-351.182723	-351.223288	32.687	
C	-0.0942235508	 1.5109839229	 0.0484079009	-0.509469
C	-0.0858935175	 0.0176732577	-0.0127431262	 0.350985
C	-0.1028898473	-0.7681015395	-1.0945540627	-0.182206
C	 0.0251029343	-2.231323336	-0.6924333887	-0.040244
C	-0.5749133934	-2.1762789733	 0.7294311607	-0.207677
C	 0.0502745918	-0.8600085492	 1.2333343868	-0.091437
C	 1.5467805757	-1.1315489669	 1.543890489	-0.202524
C	 2.3114235798	-1.6285208687	 0.2945390313	-0.184961
C	 1.5170030987	-2.6399077337	-0.5636776259	-0.196514
H	 0.8144665513	 1.8964119535	 0.5295431445	 0.124707
H	-0.161936499	 1.9567180508	-0.9481361836	 0.120883
H	-0.9381219388	 1.8802527687	 0.645608245	 0.122695
H	-0.1121319414	-0.4230934908	-2.1233955613	 0.07876
H	-0.4995827739	-2.9208701855	-1.3609044169	 0.054237
H	-1.6655869196	-2.0956392289	 0.6855673612	 0.087055
H	-0.3129575009	-3.0437588891	 1.3450529027	 0.079883
H	-0.449285435	-0.4441121268	 2.1148142094	 0.051219
H	 2.0350706396	-0.2300487019	 1.9329427722	 0.088073
H	 1.5977214593	-1.8803879437	 2.3443940896	 0.091634
H	 2.5516196514	-0.7625030652	-0.3300744009	 0.10114
H	 3.2711614763	-2.0635405769	 0.5940494727	 0.086009
H	 1.56265534	-3.6402803432	-0.1143400427	 0.089934
H	 1.9840705597	-2.7213144644	-1.5521356768	 0.087817
144.0875	182.9404	228.5455	255.8308	330.566	386.0384	424.1655	438.0148	560.6671	581.3162	643.3438	733.6192	795.291	814.2269	840.8345	849.9757	881.373	894.2938	930.4232	939.7812	1004.8229	1018.698	1025.3805	1041.0627	1056.2576	1070.7655	1104.1264	1117.859	1151.5477	1188.9516	1222.762	1254.0157	1275.897	1289.714	1292.7936	1329.7736	1331.3187	1342.447	1371.3807	1379.8547	1389.7209	1413.6361	1477.6912	1481.4387	1485.3871	1488.429	1492.8812	1507.6759	1704.5265	3011.9021	3017.3869	3018.2044	3034.6113	3041.7684	3048.7632	3054.379	3055.8779	3056.7309	3059.3072	3082.2671	3087.3616	3104.8749	3180.1567
CC1=CC2CC1CCC2	CC1=C[C@@H]2C[C@H]1CCC2	
InChI=1S/C9H14/c1-7-5-8-3-2-4-9(7)6-8/h5,8-9H,2-4,6H2,1H3	InChI=1S/C9H14/c1-7-5-8-3-2-4-9(7)6-8/h5,8-9H,2-4,6H2,1H3/t8-,9-/m1/s1
