16
gdb 75867	3.01562	1.41122	0.97294	3.0387	75.13	-0.2286	-0.0732	0.1555	1144.8598	0.123563	-437.94575	-437.937247	-437.936303	-437.979215	30.489	
C	-0.0284484934	 1.4869605737	-0.0334369713	-0.342
N	-0.0037295183	 0.0347504751	 0.0228110209	-0.177746
C	-0.017221591	-0.7536420678	-1.1219540635	 0.399949
O	-0.0498242375	-0.3454833061	-2.2595807133	-0.373338
C	 0.0171105564	-2.212861468	-0.6400279211	-0.393069
C	 0.0490626528	-2.084487879	 0.8503694242	-0.191604
C	 0.035409358	-0.7746159298	 1.170368173	 0.289188
C	 0.0588491512	-0.2682256251	 2.5462920043	 0.085326
O	 0.0479872315	 0.8967756991	 2.8733754496	-0.28225
H	 0.8609972674	 1.915768899	 0.4333442588	 0.14437
H	-0.0569909338	 1.7516849967	-1.0915851139	 0.160305
H	-0.9089409039	 1.8871992564	 0.4739337257	 0.144355
H	-0.8610696996	-2.750985445	-1.0155618563	 0.158919
H	 0.8939795143	-2.7229541684	-1.0556075518	 0.158914
H	 0.0782842998	-2.8977426504	 1.5604786824	 0.128126
H	 0.0889594962	-1.0855938202	 3.2979429322	 0.090556
78.7198	124.5181	156.7904	184.5092	198.8876	294.3648	320.0424	435.0422	517.9222	522.4909	616.7649	655.474	700.902	727.9025	782.7293	944.7879	948.625	990.4534	1019.6872	1083.6451	1139.8468	1157.7781	1180.7989	1235.7138	1272.3825	1336.0865	1408.3309	1420.884	1427.3605	1472.853	1492.449	1505.8244	1654.323	1789.0366	1825.9992	2906.8646	3047.4152	3056.9991	3078.8089	3124.5773	3153.2052	3246.2117
CN1C(=O)CC=C1C=O	CN1C(=O)CC=C1C=O	
InChI=1S/C6H7NO2/c1-7-5(4-8)2-3-6(7)9/h2,4H,3H2,1H3	InChI=1S/C6H7NO2/c1-7-5(4-8)2-3-6(7)9/h2,4H,3H2,1H3
