15
gdb 57826	4.22721	0.74795	0.64064	5.6156	85.66	-0.267	-0.0816	0.1854	1647.624	0.111118	-416.815322	-416.805575	-416.80463	-416.850794	32.738	
C	-0.0154145163	 1.4528563768	 0.0549952663	-0.353178
N	 0.0270313332	-0.0003973298	 0.048311441	-0.09977
C	 1.3334706896	-0.6168371011	 0.1795733292	-0.343757
C	-1.1422980685	-0.6883277546	-0.0766316489	 0.298454
O	-2.2445200124	-0.1772335977	-0.1860407272	-0.356852
C	-1.0426850925	-2.1474255681	-0.0772661943	-0.092944
C	-1.1241755572	-3.3542393733	-0.0946143888	 0.181385
C	-1.1881513943	-4.7173586209	-0.111320298	 0.206288
N	-1.2334809761	-5.8780771268	-0.1246065628	-0.32532
H	 0.5775368646	 1.8547789447	-0.7750183416	 0.134471
H	-1.0516789803	 1.7698904504	-0.0488432522	 0.178438
H	 0.3961363015	 1.841299654	 0.9940410759	 0.134436
H	 1.8051622674	-0.3190308339	 1.1238545673	 0.138704
H	 1.2433007035	-1.7026935247	 0.1627251224	 0.160921
H	 1.9885351678	-0.3068683348	-0.6436102583	 0.138726
71.2129	74.357	110.567	149.5422	156.621	225.6594	238.5002	336.0805	337.9168	371.2214	432.8915	542.5324	583.3857	591.1411	699.1168	745.325	905.9051	1061.1101	1084.4204	1130.4392	1179.7853	1204.9129	1290.0927	1426.3845	1438.8551	1470.4234	1478.5922	1499.4172	1499.7668	1541.735	1735.5597	2253.4029	2387.5771	3020.2058	3026.6894	3070.7772	3077.3902	3153.3078	3172.3643
CN(C)C(=O)C#CC#N	CN(C)C(=O)C#CC#N	
InChI=1S/C6H6N2O/c1-8(2)6(9)4-3-5-7/h1-2H3	InChI=1S/C6H6N2O/c1-8(2)6(9)4-3-5-7/h1-2H3
