20
gdb 30817	2.19037	1.36948	0.89108	1.3291	85.09	-0.1788	0.0329	0.2117	1359.532	0.170322	-403.19092	-403.181021	-403.180077	-403.226002	35.996	
C	-0.4138728533	 1.4838899339	-0.2220907366	-0.365078
C	 0.1138701918	 0.0553502645	 0.0016131693	-0.303257
C	 0.9204472028	-0.4717418358	-1.1330659463	 0.302402
C	 2.2126577251	-0.8920386566	-1.266229932	 0.125355
N	 3.2012384655	-1.013896188	-0.2725397858	-0.609879
C	 2.3697297117	-1.2932702129	-2.6381057659	-0.327631
C	 1.1696594653	-1.0900541216	-3.2439581233	 0.360203
C	 0.6833930675	-1.3013915757	-4.6329062608	-0.491723
O	 0.2763119535	-0.5978331105	-2.3473866305	-0.22878
H	 0.4115589407	 2.1914498855	-0.348366581	 0.11371
H	-1.030827245	 1.5267374139	-1.1238268256	 0.130427
H	-1.0237161239	 1.8135554944	 0.6250574329	 0.10723
H	 0.7324090699	 0.0247212375	 0.906411069	 0.097933
H	-0.7361470118	-0.6124390104	 0.2006172422	 0.113527
H	 3.0044260481	-0.4483892091	 0.543584555	 0.237611
H	 4.1206618832	-0.7694869991	-0.6193856106	 0.241053
H	 3.2621521307	-1.6890245928	-3.0991169333	 0.096084
H	-0.1549907516	-2.0070404469	-4.6623184317	 0.135599
H	 0.3361211555	-0.3653759137	-5.0859638924	 0.133738
H	 1.4886386944	-1.7022776966	-5.2525778626	 0.131479
51.029	115.0891	128.3324	175.4485	190.2148	213.0741	265.3713	280.6143	311.3998	398.9079	493.2462	593.2257	619.5448	642.5955	677.3636	760.7256	767.5958	788.371	806.349	962.7071	976.0912	1018.9511	1052.1423	1062.5685	1074.2445	1086.3014	1173.053	1210.6346	1259.3078	1288.4285	1325.501	1362.6892	1404.8142	1415.6617	1454.865	1472.3058	1474.1609	1494.2497	1495.58	1508.4538	1615.3217	1651.7968	1698.9894	3006.302	3027.0087	3037.743	3056.1786	3075.4296	3107.0858	3119.6398	3127.0853	3245.1327	3528.2174	3615.64
CCC1=C(N)C=C(C)O1	CCc1c(N)cc(C)o1	
InChI=1S/C7H11NO/c1-3-7-6(8)4-5(2)9-7/h4H,3,8H2,1-2H3	InChI=1S/C7H11NO/c1-3-7-6(8)4-5(2)9-7/h4H,3,8H2,1-2H3
