19
gdb 72039	2.41242	1.97208	1.53418	2.299	73.79	-0.2228	0.0744	0.2972	952.0312	0.160394	-423.028155	-423.020581	-423.019636	-423.05956	31.103	
C	-0.0211147091	 1.458279773	-0.0249724744	-0.500412
C	-0.0154276549	-0.034642465	 0.0026814568	 0.420824
O	 1.0286225924	-0.6694679431	-0.723317424	-0.29378
C	 0.690803621	-2.0453988228	-0.4771528515	 0.050571
C	 0.6037420231	-2.1049760995	 1.0681941582	-0.229534
C	-0.347709792	-0.923977074	 1.1967487145	-0.232845
C	-1.2286748183	-0.9260987107	-0.0648444269	 0.316385
O	-2.498447947	-0.3733288576	-0.1139670156	-0.47773
C	-0.7898708092	-2.1185990886	-0.9091560371	-0.29476
H	 0.8544367945	 1.8693013769	 0.4873736072	 0.122806
H	-0.0167337101	 1.8218101599	-1.0574556241	 0.129968
H	-0.9238667007	 1.8336832535	 0.4629254334	 0.133373
H	 1.4043562524	-2.6968562681	-0.9773755052	 0.080891
H	 0.1909944175	-3.0511987156	 1.4308086442	 0.095532
H	 1.5752091848	-1.9294741486	 1.5389754583	 0.105959
H	-0.6929950189	-0.5113963313	 2.1356989683	 0.087596
H	-3.0958756099	-0.9394455299	 0.3870192024	 0.284076
H	-0.9224824865	-1.9416861363	-1.9799353755	 0.109751
H	-1.2677064092	-3.0628860222	-0.6290784991	 0.09133
173.2018	200.5165	229.318	294.4002	352.6294	371.4293	421.8898	480.2954	559.6264	604.0976	625.8003	701.0535	723.325	812.7598	886.6703	901.6523	917.7625	918.9442	919.3827	958.2571	979.2674	1011.921	1068.6082	1114.1325	1124.418	1131.2321	1162.1642	1163.4286	1205.6082	1235.9045	1264.0631	1307.6194	1314.0828	1334.6693	1353.622	1417.9514	1467.5025	1476.9023	1481.918	1496.2692	1511.5599	3040.4381	3049.7871	3055.73	3102.6367	3103.3148	3107.9285	3127.8643	3146.8133	3204.1262	3790.432
CC12OC3CC1C2(O)C3	C[C@@]12O[C@H]3C[C@@H]1[C@]2(O)C3	
InChI=1S/C7H10O2/c1-6-5-2-4(9-6)3-7(5,6)8/h4-5,8H,2-3H2,1H3	InChI=1S/C7H10O2/c1-6-5-2-4(9-6)3-7(5,6)8/h4-5,8H,2-3H2,1H3/t4-,5-,6+,7+/m0/s1
