15
gdb 67007	2.70128	2.06752	1.42443	3.4667	64.11	-0.2573	-0.0001	0.2572	887.9607	0.113522	-457.767208	-457.760436	-457.759492	-457.798141	27.127	
O	 0.0598926955	 1.3210378106	-0.1492802231	-0.477667
C	 0.0272981293	-0.0532592947	-0.0675930471	 0.291489
C	-0.3842016345	-0.8501878161	-1.3156064119	-0.124462
C	-0.0763513089	-2.3350063309	-1.1632739233	-0.252789
C	-0.5906667358	-2.217495953	 0.3015701254	 0.06068
O	 0.5310622066	-1.9431580959	 1.1764023663	-0.225958
C	 0.9567324906	-0.6840132744	 0.9186968538	 0.392571
O	 1.8894676789	-0.147979785	 1.4541563671	-0.375901
C	-1.244163382	-0.8534316967	-0.056899474	-0.164253
H	 0.8392303376	 1.5881994344	 0.3600659692	 0.303495
H	-0.5378865174	-0.286370824	-2.2270906553	 0.11363
H	-0.7565295035	-2.9400783996	-1.7687387029	 0.11881
H	 0.9507735938	-2.6921612718	-1.2848875022	 0.115937
H	-1.1683816577	-3.0249451631	 0.7422373473	 0.108798
H	-2.2346394925	-0.4758633097	 0.1548763707	 0.11562
137.9191	255.0726	283.8422	330.7029	388.1735	438.2634	493.2433	592.7379	668.5178	675.8066	735.5253	824.5418	853.2232	859.771	884.4743	921.5277	956.4584	978.0227	994.2817	1037.6219	1087.1185	1115.4888	1118.4951	1175.2077	1196.9005	1214.8071	1280.8298	1287.8361	1349.7589	1396.9406	1459.7693	1489.2786	1863.8986	3052.2354	3110.4253	3163.5408	3201.2402	3220.9166	3736.1986
OC12C3CC(OC1=O)C23	O[C@@]12[C@H]3C[C@@H](OC1=O)[C@@H]23	
InChI=1S/C6H6O3/c7-5-6(8)2-1-3(9-5)4(2)6/h2-4,8H,1H2	InChI=1S/C6H6O3/c7-5-6(8)2-1-3(9-5)4(2)6/h2-4,8H,1H2/t2-,3+,4-,6+/m0/s1
