22
gdb 88012	2.65115	1.3742	1.17121	1.1699	87.45	-0.2223	0.0816	0.3039	1191.4004	0.193712	-367.157482	-367.148546	-367.147601	-367.190945	34.836	
C	-0.1334077762	 1.1726850546	-0.309746476	-0.315041
N	 0.3020937183	-0.1908370903	-0.0474556974	-0.128955
C	 1.7418100907	-0.4133362169	 0.1107712442	-0.320272
C	 0.815525898	-0.5021174629	 1.27028581	 0.317228
C	 0.8496051038	 0.3677099934	 2.5426795495	-0.316797
C	 0.7206696551	-0.9411131936	 3.3866524287	-0.318221
C	 0.4145938951	-1.7115644673	 2.0923964952	 0.313515
C	-0.7938852563	-2.5593603271	 1.816078022	-0.313576
C	 0.5909414989	-3.1636931981	 1.772589052	-0.337094
H	 0.475484853	 1.9402424183	 0.1955480441	 0.100469
H	-0.0923861261	 1.3614611135	-1.3872427309	 0.122066
H	-1.172148112	 1.2922693312	 0.0153471118	 0.121622
H	 2.1378951917	-1.3098569645	-0.3604064573	 0.11008
H	 2.4008133548	 0.4545321223	 0.0675070051	 0.10025
H	 1.7459226785	 0.9692126402	 2.7092113087	 0.102269
H	-0.0278002254	 1.0146460033	 2.6352294182	 0.107579
H	 1.665525854	-1.236839084	 3.8517089748	 0.103419
H	-0.0616983898	-0.9439473712	 4.1496076505	 0.100415
H	-1.4415039167	-2.8171244269	 2.6483008012	 0.105378
H	-1.3017536031	-2.3920613411	 0.8720496794	 0.124808
H	 1.0007578458	-3.4270467075	 0.802148077	 0.112667
H	 0.8869603682	-3.8295845053	 2.5773289393	 0.108191
69.0393	131.9541	179.3773	203.7558	235.062	265.8764	325.9828	413.127	448.068	497.5716	546.3749	609.0995	751.6391	781.1084	788.1715	858.8324	885.8549	891.3539	915.5906	932.2883	943.4486	982.6975	1044.556	1051.7289	1072.5045	1086.3682	1104.6647	1117.7171	1137.0443	1157.0258	1190.9977	1191.873	1200.1914	1214.3835	1242.0235	1259.388	1271.4019	1365.3341	1425.0034	1448.1726	1457.2906	1475.3644	1492.4485	1494.5807	1496.6825	1500.6019	1516.4054	2968.9828	3052.1663	3057.4752	3064.862	3077.3708	3097.4443	3099.7439	3114.4777	3119.6934	3124.3043	3166.7854	3199.3067	3217.2497
CN1CC11CCC11CC1	CN1C[C@]21CCC12CC1	
InChI=1S/C8H13N/c1-9-6-8(9)5-4-7(8)2-3-7/h2-6H2,1H3	InChI=1S/C8H13N/c1-9-6-8(9)5-4-7(8)2-3-7/h2-6H2,1H3/t8-,9?/m1/s1
