15
gdb 44867	3.49716	1.66849	1.53285	2.5719	62.33	-0.2692	0.0002	0.2694	868.7641	0.115498	-457.779774	-457.773828	-457.772884	-457.810012	24.588	
O	-0.0155095232	 0.0216863575	-0.0045922563	-0.339597
C	 0.0241245785	 1.2142377461	 0.003061298	 0.449107
O	-1.1023902364	 2.0042909415	 0.0350716541	-0.244736
C	-0.6373221131	 3.3892372337	 0.0543438026	 0.049823
C	 0.613204575	 3.3212355688	-0.8325145299	-0.244974
C	 1.2261642259	 2.1753169519	 0.0023981377	-0.214366
C	 1.1754389451	 2.7667908116	 1.4287219252	 0.046534
O	 1.2361263336	 4.1948413463	 1.5034273163	-0.249912
C	-0.0515070299	 3.5689988305	 1.4641598092	 0.037257
H	-1.4638959453	 4.0281574668	-0.2478679901	 0.098956
H	 0.3699476837	 3.022093706	-1.8532841351	 0.123412
H	 1.2055871766	 4.2331584328	-0.8255788721	 0.13956
H	 2.1568236584	 1.7149913258	-0.3185813938	 0.102657
H	 1.5696858025	 2.219792796	 2.2778163517	 0.125733
H	-0.6854201411	 3.6856668548	 2.3359978625	 0.120546
156.7924	324.3743	378.5769	454.4884	487.4314	542.1339	602.6261	734.8231	767.1294	811.2889	824.785	869.8545	878.8408	913.1378	926.0258	949.2384	971.9075	999.6756	1008.5463	1037.4468	1094.339	1116.8887	1157.0816	1191.8097	1234.5157	1265.1075	1283.6775	1296.0323	1324.6914	1341.395	1413.4105	1484.493	1899.1927	3098.9537	3150.9919	3160.6739	3172.6448	3180.5849	3192.2332
O=C1OC2CC1C1OC21	O=C1O[C@@H]2C[C@H]1[C@H]1O[C@@H]21	
InChI=1S/C6H6O3/c7-6-2-1-3(8-6)5-4(2)9-5/h2-5H,1H2	InChI=1S/C6H6O3/c7-6-2-1-3(8-6)5-4(2)9-5/h2-5H,1H2/t2-,3+,4+,5-/m0/s1
