12
gdb 48065	2.02528	1.82546	1.13286	3.3039	60.72	-0.279	-0.129	0.15	1026.0587	0.074159	-472.604384	-472.595879	-472.594935	-472.639009	28.652	
O	-0.7262062681	 1.316338855	 0.3484754314	-0.197588
C	 0.339445227	 0.976176333	-0.0849783163	 0.085175
C	 1.443938303	 1.9705495809	-0.4590941069	 0.244631
O	 2.392454224	 1.5850647628	-1.0929630894	-0.252504
C	 1.2514555485	 3.4449900678	-0.1112259408	 0.180019
C	 2.2029961776	 4.4056591625	-0.7106161509	-0.19488
O	 0.9042620135	 4.228457504	-1.2638628338	-0.237938
C	 0.5875296311	 3.7926476316	 1.127240052	 0.250616
N	 0.1187331991	 4.0840763957	 2.1422298429	-0.321632
H	 0.6186643366	-0.0735248324	-0.3050105483	 0.130698
H	 2.3670784477	 5.349819154	-0.1970501163	 0.15333
H	 3.0236701701	 4.002326195	-1.2971174834	 0.160074
23.5293	109.6633	137.6788	173.4935	240.0169	247.5976	311.8408	453.3352	530.5008	548.4754	582.6222	614.5292	680.5869	852.1219	878.0521	950.5964	1020.0097	1119.771	1141.4723	1177.5818	1251.0684	1352.5072	1366.6866	1503.2934	1811.7438	1829.7296	2361.831	2951.3945	3111.3814	3218.7529
O=CC(=O)C1(CO1)C#N	O=CC(=O)[C@]1(CO1)C#N	
InChI=1S/C5H3NO3/c6-2-5(3-9-5)4(8)1-7/h1H,3H2	InChI=1S/C5H3NO3/c6-2-5(3-9-5)4(8)1-7/h1H,3H2/t5-/m1/s1
