23
gdb 59167	2.40003	1.31655	1.09502	1.5976	85.5	-0.2484	0.0707	0.3192	1257.2549	0.205063	-388.264645	-388.254986	-388.254041	-388.29898	37.196	
C	-0.2374965382	 1.4271548581	 0.1222822316	-0.388302
C	 0.0761172249	-0.0509971985	-0.1494893989	 0.015619
C	 0.9745579751	-0.222925922	-1.382186612	-0.387259
C	 0.7285910521	-0.6799582572	 1.0736062246	 0.029345
C	 0.0278099621	-1.2020724571	 2.294569225	-0.091112
C	-1.2704390237	-1.9345681742	 1.9327218352	-0.287586
C	-0.4219768934	-2.9370618214	 1.0728139815	 0.117839
O	-0.6955361162	-3.088024054	-0.3069155771	-0.424845
C	 0.8423533698	-2.150566156	 1.3875618729	-0.106805
H	 0.6803021297	 1.9930457253	 0.3247608586	 0.105926
H	-0.7287364383	 1.8922547892	-0.7389733023	 0.10532
H	-0.8950566417	 1.5422444448	 0.9904631674	 0.109832
H	-0.8611716743	-0.5732288409	-0.3597364549	 0.083163
H	 1.955527882	 0.2430901353	-1.2267490943	 0.100106
H	 1.1289783378	-1.283735253	-1.5968388753	 0.129632
H	 0.5238068401	 0.242357271	-2.2654719633	 0.101022
H	 1.6549544312	-0.1694387229	 1.3431557441	 0.076809
H	 0.2801202641	-0.8638766562	 3.2922673114	 0.082834
H	-1.7497639823	-2.4211568142	 2.7854716253	 0.096717
H	-2.022973302	-1.3537390943	 1.3912184529	 0.099164
H	-0.392660238	-3.9180730956	 1.5658293693	 0.071815
H	-1.4900446124	-3.6234354987	-0.4008774887	 0.281741
H	 1.8061237414	-2.6099605674	 1.574163927	 0.079023
52.9625	124.7266	158.1031	220.4008	230.3697	250.7687	283.6954	321.4351	350.645	420.6464	443.1296	497.7475	598.1026	714.1494	760.6071	803.737	837.8885	867.683	908.4742	928.1719	952.6603	965.3204	973.9336	1005.4149	1025.6649	1058.4453	1081.5128	1101.3113	1122.598	1141.7201	1170.253	1190.7241	1212.3269	1237.5089	1248.743	1278.777	1323.5506	1332.6782	1343.6911	1365.7501	1394.2904	1414.8789	1425.0951	1456.7632	1487.4394	1488.0841	1491.5735	1504.3319	1511.7722	3004.079	3020.1279	3024.5719	3052.6132	3067.879	3083.0572	3089.2797	3097.3669	3100.9785	3105.9934	3116.4618	3171.8656	3185.0557	3812.7291
CC(C)C1C2CC(O)C12	CC(C)[C@H]1[C@H]2C[C@@H](O)[C@@H]12	
InChI=1S/C8H14O/c1-4(2)7-5-3-6(9)8(5)7/h4-9H,3H2,1-2H3	InChI=1S/C8H14O/c1-4(2)7-5-3-6(9)8(5)7/h4-9H,3H2,1-2H3/t5-,6-,7+,8+/m1/s1
