22
gdb 22256	1.80902	1.3744	1.04135	1.4152	81.68	-0.2407	0.0104	0.2511	1309.3079	0.190915	-441.447311	-441.436213	-441.435269	-441.482921	40.973	
C	 0.5917348214	-1.4948371261	-0.7942418322	-0.392765
C	 0.1237365052	-0.2445400823	-0.016623521	-0.038374
C	 0.6043018576	 1.0457070226	-0.6971129383	-0.416269
C	-1.3755829346	-0.3359846251	 0.213513587	 0.347365
N	-1.9108884447	-0.9324471458	 1.2118087708	-0.186783
O	-0.9684363154	-1.4412281733	 2.1199964002	-0.398897
C	-2.4121900736	 0.2217553295	-0.7517196411	 0.063289
C	-2.7092941669	 1.7114908654	-0.5348419282	-0.415866
O	-1.9541386338	-0.0384535875	-2.0793844516	-0.431499
H	 1.6809272734	-1.4781456429	-0.9086616534	 0.104823
H	 0.3189613736	-2.4070871807	-0.2572145433	 0.124825
H	 0.1376021709	-1.5253795955	-1.7876052383	 0.138101
H	 0.580157286	-0.2917989676	 0.9762055344	 0.105516
H	 0.1749531486	 1.1560849125	-1.694770179	 0.133483
H	 0.354888205	 1.9329969341	-0.1066980309	 0.110313
H	 1.6945991363	 1.0165755296	-0.7957235899	 0.107442
H	-1.5344853425	-1.8329580177	 2.7930727128	 0.304924
H	-3.3373645169	-0.3362996063	-0.5548193605	 0.088692
H	-1.8296065673	 2.3322539971	-0.7147594476	 0.130736
H	-3.5033717229	 2.036255485	-1.2184860639	 0.104506
H	-3.0598650556	 1.8811595122	 0.487169855	 0.131858
H	-2.5961148339	 0.3385491728	-2.6891341011	 0.28458
61.7201	94.7368	171.5988	212.0839	229.4748	232.8381	246.7193	257.0589	262.9798	291.3598	340.1724	358.7883	384.4681	430.7835	448.6395	521.8788	665.1273	687.5288	705.1271	884.7207	908.1333	934.8966	970.0491	984.7514	1009.2498	1075.8055	1091.6397	1130.3763	1138.576	1193.9455	1219.7145	1300.188	1335.346	1352.3739	1368.2296	1385.9606	1390.2373	1401.1789	1413.5613	1437.2146	1487.0859	1491.5445	1501.2192	1502.6646	1506.9393	1523.8807	1710.8016	3010.4114	3031.3267	3036.4353	3039.711	3066.1045	3096.0149	3102.3331	3109.4103	3132.2994	3137.4931	3143.0686	3821.8643	3821.9576
CC(C)C(=NO)C(C)O	CC(C)C(=NO)[C@@H](C)O	
InChI=1S/C6H13NO2/c1-4(2)6(7-9)5(3)8/h4-5,8-9H,1-3H3	InChI=1S/C6H13NO2/c1-4(2)6(7-9)5(3)8/h4-5,8-9H,1-3H3/t5-/m1/s1
