14
gdb 28536	3.26784	1.43339	0.99667	3.3153	68.67	-0.2079	-0.0132	0.1947	1090.279	0.102924	-470.079511	-470.07177	-470.070826	-470.111359	29.904	
N	-0.0306316938	 1.3810590156	-0.0664978825	-0.56713
C	-0.0200314001	 0.0209659715	-0.0578513358	 0.348821
N	-1.1817119689	-0.6278468191	-0.0283535697	-0.364968
C	-1.1184486478	-1.9571154451	-0.0615886984	 0.433703
O	-2.3098589873	-2.5842491909	-0.0353532202	-0.401353
N	-0.0338406707	-2.7211626723	-0.1124389293	-0.372083
C	 1.1337709604	-2.0520410443	-0.1333800908	-0.1108
C	 1.2087701573	-0.6805030916	-0.1092138279	 0.260327
O	 2.3584851795	 0.0681050634	-0.1238134576	-0.463658
H	 0.826471411	 1.8653042972	 0.138331014	 0.272098
H	-0.9012809418	 1.8298156202	 0.1652977211	 0.265527
H	-2.1071200897	-3.5285673738	-0.0616616072	 0.300341
H	 2.0413716401	-2.6543949117	-0.1697182785	 0.098368
H	 3.1213809317	-0.5191547889	-0.1301975672	 0.300807
134.4182	224.9274	255.7324	292.5581	336.7584	361.964	392.5196	450.4751	497.1326	520.9709	550.3853	554.131	602.5468	742.1829	785.2657	794.178	814.1362	935.9392	991.3372	1110.1972	1165.0913	1246.0476	1295.981	1311.475	1344.6661	1430.4108	1500.8049	1530.8399	1620.9333	1636.1943	1664.3802	3126.7973	3607.4202	3737.4888	3790.2077	3821.8215
NC1=NC(O)=NC=C1O	Nc1nc(O)ncc1O	
InChI=1S/C4H5N3O2/c5-3-2(8)1-6-4(9)7-3/h1,8H,(H3,5,6,7,9)	InChI=1S/C4H5N3O2/c5-3-2(8)1-6-4(9)7-3/h1,8H,(H3,5,6,7,9)
