22
gdb 104589	2.21441	1.24955	1.052	1.2076	83.31	-0.2542	0.0324	0.2866	1316.3296	0.191853	-404.353529	-404.343195	-404.342251	-404.389193	37.923	
C	-0.1595883909	 1.4708316451	-0.9409244422	-0.378263
C	-0.032034851	 0.1408451272	-0.1899645378	-0.251225
C	-1.3685204648	-0.4684663032	 0.1775423242	 0.486089
C	-2.1545669475	-1.2538594207	-0.8333066311	-0.323487
C	-1.5339591199	-1.9452867897	 0.3645446407	-0.306065
O	-2.2001778242	 0.3683206779	 0.9775283456	-0.294366
C	-1.9085910677	 0.5184850063	 2.291555544	 0.376926
C	-2.9283831836	 1.4302499866	 2.9280044351	-0.461059
N	-0.9132336791	-0.0518969148	 2.834471119	-0.509189
H	 0.8270416358	 1.879805323	-1.178730811	 0.108672
H	-0.7095526416	 1.347210255	-1.8800107169	 0.113249
H	-0.6946365305	 2.2119149147	-0.3400133012	 0.119932
H	 0.5044406658	-0.5864262595	-0.810668823	 0.092976
H	 0.5565022032	 0.270492475	 0.7228681558	 0.128175
H	-3.2302939005	-1.1212246573	-0.8319431544	 0.117912
H	-1.7150909958	-1.4056718462	-1.8132843041	 0.111189
H	-0.6642142952	-2.5759072268	 0.2171094329	 0.115812
H	-2.1981109736	-2.2739306598	 1.1544170191	 0.120171
H	-2.7261641037	 1.5621992593	 3.9920899181	 0.12472
H	-2.9174001633	 2.4081578129	 2.4369765955	 0.146355
H	-3.9341183142	 1.0181530157	 2.8010093141	 0.14436
H	-0.8706686577	 0.1838287093	 3.8235413376	 0.217116
64.7069	70.9729	117.9102	123.4131	181.3171	213.8893	220.7787	308.2017	344.6597	402.7275	412.3354	511.7286	578.4586	606.3094	727.5561	761.8732	792.944	852.162	865.6033	906.3423	915.0959	961.6587	993.7934	1013.205	1042.8878	1057.0487	1067.273	1073.4105	1082.4245	1104.8893	1127.807	1185.7571	1246.9286	1294.8382	1342.5961	1371.3023	1389.7447	1407.4809	1414.0996	1456.6069	1470.7791	1481.7339	1483.8846	1496.7154	1501.2511	1507.8771	1725.9237	3037.0617	3040.7015	3048.0025	3086.7032	3107.5793	3111.2312	3114.279	3135.3762	3142.7505	3143.9636	3220.2087	3235.4363	3509.34
CCC1(CC1)OC(C)=N	CCC1(CC1)O[C](C)[NH]	
InChI=1S/C7H13NO/c1-3-7(4-5-7)9-6(2)8/h8H,3-5H2,1-2H3	InChI=1S/C7H13NO/c1-3-7(4-5-7)9-6(2)8/h8H,3-5H2,1-2H3
