15
gdb 13954	5.14914	1.30136	1.21243	3.0625	64.9	-0.2505	0.0238	0.2743	984.0957	0.11894	-362.627555	-362.620368	-362.619424	-362.65958	26.353	
N	-0.0956796677	-1.1498582	 0.3007474908	-0.302689
C	-0.0806368734	-0.0104614195	 0.1100297741	 0.26442
C	-0.0356661345	 1.4343798074	-0.1398711133	-0.456854
C	 1.3691106886	 1.9809801676	-0.102520748	 0.28167
C	 2.0855430673	 2.4100298992	 1.1627776653	-0.33298
C	 1.9012680422	 3.3889024576	 0.0434021452	 0.044338
O	 2.8952369797	 3.2033497765	-0.9633004729	-0.280709
C	 2.3995653931	 1.8617422945	-1.2250372891	-0.124669
H	-0.5023501112	 1.6296493168	-1.1133554287	 0.156143
H	-0.6571206214	 1.9338919158	 0.6120169648	 0.156153
H	 1.4361163902	 2.5537886152	 2.0215722714	 0.121051
H	 3.0800943396	 2.0384705864	 1.3927529933	 0.127385
H	 1.4215831422	 4.3583735923	 0.1178284222	 0.113215
H	 3.1777252792	 1.0973801457	-1.1251924636	 0.121021
H	 1.9506143363	 1.8086555044	-2.2240707113	 0.112507
55.498	113.9197	257.9177	306.6007	365.2441	388.612	444.4169	470.575	711.4239	761.1935	850.0044	894.7012	923.6702	935.57	939.8601	989.3454	1007.643	1025.7811	1064.4838	1084.6663	1102.9966	1157.0752	1185.5849	1266.4728	1288.8022	1324.1799	1341.5167	1409.3757	1456.7187	1483.846	1516.4592	2362.4439	3026.1312	3034.8447	3075.1325	3080.7306	3116.7889	3179.9676	3208.4898
N#CCC12CC1OC2	N#CC[C@]12C[C@H]1OC2	
InChI=1S/C6H7NO/c7-2-1-6-3-5(6)8-4-6/h5H,1,3-4H2	InChI=1S/C6H7NO/c7-2-1-6-3-5(6)8-4-6/h5H,1,3-4H2/t5-,6-/m1/s1
