16
gdb 125503	3.53442	1.15284	0.87492	5.5516	78.62	-0.2153	-0.0347	0.1806	1268.3755	0.124624	-434.105273	-434.096643	-434.095699	-434.138502	31.499	
C	-0.0555492831	 1.4666042145	-0.0314395766	-0.505477
C	-0.0156867805	-0.0245990893	 0.0266445441	 0.36143
N	-0.0052459608	-0.7585891284	-1.0689454951	-0.295109
N	 0.021047934	-2.0457584644	-0.6348155906	-0.019854
C	 0.0361750793	-3.1312608122	-1.508983097	 0.187097
O	 0.0343991807	-3.0637046965	-2.7057948722	-0.272492
C	 0.0354492101	-2.125759881	 0.7488402278	-0.088246
C	 0.0114325586	-0.8397774381	 1.2118341031	 0.092033
N	-0.0660879077	-0.3613165232	 2.5209475855	-0.607109
H	 0.8349844461	 1.9117537398	 0.430129297	 0.126165
H	-0.1013089935	 1.7957779444	-1.0707650227	 0.15643
H	-0.9286082176	 1.8592158068	 0.5022015308	 0.140122
H	 0.0508293026	-4.0786475116	-0.9370525014	 0.088804
H	 0.0565186548	-3.076701695	 1.2562282394	 0.135784
H	 0.2409480334	-1.0247097696	 3.2191032929	 0.249522
H	 0.4105231535	 0.5209470536	 2.6527877351	 0.2509
104.223	142.654	192.2377	199.9562	229.1254	248.669	296.4823	373.2197	430.0201	524.4481	618.824	627.8181	676.0655	704.7715	749.0268	768.0613	838.9347	989.0997	1020.2576	1028.4352	1062.9295	1109.3353	1204.6072	1242.6019	1295.6981	1383.9682	1415.6018	1443.1274	1459.7472	1481.6087	1489.4933	1537.5282	1646.2612	1678.3339	1842.5082	2956.443	3025.1443	3076.2729	3142.0307	3262.989	3546.6323	3638.2535
CC1=NN(C=O)C=C1N	Cc1nn(C=O)cc1N	
InChI=1S/C5H7N3O/c1-4-5(6)2-8(3-9)7-4/h2-3H,6H2,1H3	InChI=1S/C5H7N3O/c1-4-5(6)2-8(3-9)7-4/h2-3H,6H2,1H3
