19
gdb 66331	2.44971	1.35975	1.2701	4.5575	81.45	-0.2523	-0.0061	0.2462	1119.6119	0.161352	-382.095509	-382.087008	-382.086064	-382.128348	32.965	
N	-0.0751333269	 1.4859503641	 0.0671544658	-0.540692
C	 0.0050420113	 0.0132394999	 0.0131451866	 0.074797
C	-1.4340061805	-0.5521884073	 0.065661621	-0.209781
C	-1.4726294805	-2.0432569822	-0.274496645	-0.228854
C	-0.951596846	-2.2953521906	-1.6965358752	-0.249282
C	 0.2887332702	-1.4962068549	-1.9900931291	-0.053547
C	 0.7343291956	-0.5031176781	-1.2223114794	-0.086785
C	 0.7534232452	-0.4220175296	 1.2124336424	 0.298026
N	 1.3530315833	-0.7817652015	 2.1328609202	-0.346179
H	 0.8609407522	 1.8824325881	 0.099778138	 0.238131
H	-0.4944094014	 1.8105943369	-0.8010346381	 0.232386
H	-1.8622607444	-0.3466491827	 1.0494515409	 0.125542
H	-2.0245202096	 0.01208611	-0.6673236793	 0.098701
H	-0.8545447713	-2.5935685555	 0.4451038987	 0.125906
H	-2.492999428	-2.4246248584	-0.1693044463	 0.102636
H	-0.7429933811	-3.3616864899	-1.8460237864	 0.114507
H	-1.7256452821	-2.0435894687	-2.4371795835	 0.113001
H	 0.8448661083	-1.7592988863	-2.8872762988	 0.098298
H	 1.6569189659	 0.0183518068	-1.4656463024	 0.093188
86.7105	146.8292	190.1621	264.791	283.9146	300.2347	355.5252	417.9505	469.544	496.7609	565.5939	601.3878	675.9999	707.3019	752.4669	845.7491	872.587	888.7445	933.0155	962.4824	991.8809	1006.7857	1068.3162	1078.8429	1093.6417	1134.0304	1178.1346	1240.6147	1256.4049	1279.6821	1334.2088	1352.3025	1375.1236	1381.1751	1416.4657	1471.6763	1482.7832	1494.9882	1652.6819	1714.8441	2352.151	2999.5016	3028.3106	3037.1487	3051.0732	3084.5784	3104.1691	3143.8429	3167.1982	3475.7602	3559.1894
NC1(CCCC=C1)C#N	N[C@]1(CCCC=C1)C#N	
InChI=1S/C7H10N2/c8-6-7(9)4-2-1-3-5-7/h2,4H,1,3,5,9H2	InChI=1S/C7H10N2/c8-6-7(9)4-2-1-3-5-7/h2,4H,1,3,5,9H2/t7-/m1/s1
