22
gdb 102808	1.59262	1.44098	0.91285	2.3305	79.39	-0.2519	0.0268	0.2787	1391.0473	0.191735	-441.51971	-441.50847	-441.507526	-441.557055	39.559	
C	 0.4725340321	 1.4962027769	 0.1155223935	-0.388721
C	 0.2190803512	-0.0127415894	 0.0988005033	-0.194759
C	-1.2612836727	-0.4026616582	-0.0347148554	 0.031997
N	-1.8216406414	 0.1208289945	-1.2797504396	-0.282214
C	-2.9714265111	 0.8446963631	-1.3519210957	 0.155344
O	-3.7160697467	 1.075715846	-0.4228647563	-0.326579
C	-1.4488329404	-1.9364139142	 0.0382044185	 0.133684
C	-2.9056731967	-2.3580570656	 0.2036912595	-0.420419
O	-0.8479107915	-2.5646616542	-1.0953340785	-0.44324
H	 1.5402450642	 1.7102231693	 0.2216205272	 0.115998
H	 0.1270188645	 1.9733930474	-0.8066483543	 0.112157
H	-0.050658953	 1.9766670352	 0.949177016	 0.124091
H	 0.7794223779	-0.4912545538	-0.7141882257	 0.109075
H	 0.5979659798	-0.4581370336	 1.0263163471	 0.103478
H	-1.8422539801	 0.0612983802	 0.7685934359	 0.1138
H	-1.2630736006	 0.0355620523	-2.1150173375	 0.244996
H	-3.1636791583	 1.205477924	-2.382774114	 0.072992
H	-0.8713552463	-2.2967882949	 0.8982143935	 0.087335
H	-3.5160056201	-1.9968651051	-0.6317002313	 0.122374
H	-2.977722821	-3.4486381298	 0.2408097765	 0.120663
H	-3.3350941548	-1.9459717342	 1.1213176616	 0.131281
H	-1.4836692948	-2.5112545261	-1.8170616442	 0.276667
34.1583	57.1167	95.2704	143.4607	161.7739	203.7789	235.3731	248.3449	265.6264	289.6474	327.6487	342.3873	457.8341	501.1435	566.7179	668.3097	738.5378	785.3941	856.4938	906.5593	951.6241	968.7302	1024.2399	1031.1566	1052.6195	1082.7255	1089.2054	1150.7792	1173.4043	1210.5841	1281.5821	1290.9618	1317.7333	1347.7181	1376.2658	1382.1993	1405.7944	1414.4898	1419.2062	1430.2857	1484.8094	1486.2426	1495.0416	1497.098	1506.5215	1520.0518	1802.7101	2926.7387	3028.5569	3036.4224	3037.2012	3039.714	3060.6762	3080.13	3105.7198	3107.198	3109.896	3121.9217	3623.6814	3804.7248
CCC(NC=O)C(C)O	CC[C@@H](NC=O)[C@@H](C)O	
InChI=1S/C6H13NO2/c1-3-6(5(2)9)7-4-8/h4-6,9H,3H2,1-2H3,(H,7,8)	InChI=1S/C6H13NO2/c1-3-6(5(2)9)7-4-8/h4-6,9H,3H2,1-2H3,(H,7,8)/t5-,6-/m1/s1
