17
gdb 76317	1.87177	1.86552	1.29481	3.3088	69.61	-0.2414	0.0335	0.2749	1037.3035	0.133905	-458.903503	-458.89445	-458.893505	-458.93699	34.463	
O	 0.0662578511	 1.2847799652	-0.2492143212	-0.447412
C	 0.039390036	-0.1197046625	-0.0994163201	 0.038012
C	 0.2424009487	-0.5206346686	 1.3910691788	 0.084173
O	 0.8990950834	 0.4395483532	 2.1880499459	-0.416531
C	-1.308982037	-0.5746789353	 1.5893864783	-0.334377
C	-1.8944870683	 0.5950182835	 2.2064520458	 0.372538
C	-2.4029486836	 1.567290782	 2.6984125007	-0.461647
C	-1.4350035492	-0.609231567	 0.0016347965	 0.154872
O	-2.3863348832	 0.1794917826	-0.6228985007	-0.422936
H	 0.3505766125	 1.6447884387	 0.6050251355	 0.298051
H	 0.6807030369	-0.5853176746	-0.8558391237	 0.070675
H	 0.6874201221	-1.5152411032	 1.5022088874	 0.085085
H	 1.849632699	 0.3062067418	 2.1056552788	 0.29679
H	-1.6619025125	-1.4799024604	 2.0911956093	 0.103868
H	-2.8505609719	 2.4208246911	 3.1438637964	 0.196124
H	-1.5627760193	-1.6396742029	-0.3409884759	 0.089043
H	-2.0473442148	 1.0853581865	-0.5663126819	 0.293671
73.2521	128.1019	164.2082	244.5318	257.0736	278.0421	343.0267	364.0182	436.6355	504.4337	545.5683	558.1868	600.6277	623.8802	632.602	688.1524	770.4883	782.8745	865.2164	876.2734	946.051	1076.6612	1093.0224	1127.2864	1142.2303	1174.1911	1212.0164	1222.0953	1248.8131	1283.5124	1307.7123	1348.167	1351.4059	1412.4825	1419.2196	1459.5327	2233.831	3036.8127	3048.8798	3064.9478	3081.5577	3504.3522	3703.6724	3730.0826	3811.6704
OC1C(O)C(C#C)C1O	O[C@H]1[C@@H](O)[C@@H](C#C)[C@H]1O	
InChI=1S/C6H8O3/c1-2-3-4(7)6(9)5(3)8/h1,3-9H	InChI=1S/C6H8O3/c1-2-3-4(7)6(9)5(3)8/h1,3-9H/t3-,4+,5-,6+
