15
gdb 9467	2.71034	1.88417	1.7162	0.9411	62.99	-0.2518	-0.0589	0.1929	851.8872	0.11675	-399.803541	-399.795471	-399.794526	-399.836152	28.581	
C	 0.011329049	 1.740320685	-0.2157455882	-0.440467
C	 0.052608685	 0.2283907879	 0.0029206595	 0.096907
N	 1.099448801	-0.5222657018	-0.7303680311	-0.353114
C	 1.6152443867	-1.1778682037	 0.505780111	-0.276308
C	 0.7287678784	-0.2447493204	 1.3302726002	 0.344699
O	 0.6193242964	 0.0660073424	 2.4750279537	-0.276959
C	-1.3300485058	-0.3877840043	-0.129511681	 0.125939
O	-1.5492281134	-1.3895864773	-0.7630451892	-0.252655
H	 1.005312312	 2.1666730886	-0.0654137163	 0.140481
H	-0.3123138274	 1.976560448	-1.2341390171	 0.13544
H	-0.6800599639	 2.2099467232	 0.490917742	 0.136081
H	 0.6681131627	-1.1912464125	-1.3638515932	 0.236462
H	 1.332160513	-2.2314008477	 0.6323603108	 0.141037
H	 2.6939287859	-1.0782476293	 0.6644717628	 0.14098
H	-2.1380722696	 0.1530778819	 0.406330436	 0.101477
100.218	103.3735	166.3995	184.362	251.0764	289.5858	346.3673	480.5554	510.3569	619.0142	635.2876	767.5726	799.297	877.5493	938.4708	963.6153	997.2627	1015.678	1051.8285	1130.9392	1166.5633	1186.2374	1211.9384	1283.2822	1389.1462	1402.1651	1410.3114	1465.2991	1479.9357	1494.1716	1805.33	1912.5754	2916.9538	3021.6965	3042.1115	3080.6195	3114.9287	3132.414	3502.7944
CC1(NCC1=O)C=O	C[C@]1(NCC1=O)C=O	
InChI=1S/C5H7NO2/c1-5(3-7)4(8)2-6-5/h3,6H,2H2,1H3	InChI=1S/C5H7NO2/c1-5(3-7)4(8)2-6-5/h3,6H,2H2,1H3/t5-/m0/s1
