17
gdb 53350	3.1436	1.00553	0.81832	3.3426	84.08	-0.2287	-0.0471	0.1816	1420.691	0.135012	-384.703212	-384.6941	-384.693156	-384.740862	31.734	
C	 0.0277040748	 1.5329318804	-0.1016324085	-0.497921
C	 0.0395089096	 0.0796732705	-0.0185823758	 0.057705
C	 0.0447722975	-1.1228940584	 0.0370993789	 0.095239
C	 0.0311916032	-2.5724355158	 0.1244906941	-0.28849
C	 0.6023540434	-3.1626944155	 1.4420903532	-0.280344
C	-0.4334283801	-4.1647188492	 1.8796865816	-0.048256
C	-1.5266895165	-4.1732309439	 1.1098040191	-0.17334
C	-1.4044257801	-3.184553065	 0.0167273985	 0.381776
O	-2.2250794844	-2.9037493922	-0.819133849	-0.321771
H	 0.839425424	 1.903189665	-0.7376389744	 0.147045
H	-0.9158787167	 1.8959815624	-0.5236327635	 0.153534
H	 0.1462523252	 1.9906324687	 0.8867746714	 0.145185
H	 0.5832383092	-2.9929205189	-0.7273255031	 0.130862
H	 1.5840616856	-3.6285380955	 1.3020063858	 0.123552
H	 0.7343540271	-2.3840895157	 2.2016774208	 0.136527
H	-0.2800572995	-4.7943250631	 2.7501451519	 0.1188
H	-2.4103990023	-4.7857168536	 1.2336535589	 0.119897
3.7683	45.1417	84.8621	146.6944	256.1574	284.9304	324.3533	405.7837	465.4199	498.898	576.6617	650.6928	751.1997	758.8677	809.7551	865.7331	940.0515	973.8842	1004.196	1030.7309	1052.2126	1054.9299	1111.6744	1154.2153	1167.9392	1187.8284	1214.211	1297.3533	1332.3754	1364.0628	1415.0184	1471.9239	1478.0245	1478.7506	1654.0064	1826.2256	2374.2126	3013.8457	3026.8318	3042.8223	3075.1002	3086.6738	3088.8615	3187.8746	3228.4459
CC#CC1CC=CC1=O	CC#C[C@H]1CC=CC1=O	
InChI=1S/C8H8O/c1-2-4-7-5-3-6-8(7)9/h3,6-7H,5H2,1H3	InChI=1S/C8H8O/c1-2-4-7-5-3-6-8(7)9/h3,6-7H,5H2,1H3/t7-/m0/s1
