16
gdb 26032	3.14991	1.26066	0.99859	1.1082	75.74	-0.2426	0.0006	0.2432	1184.4984	0.12376	-400.747765	-400.739339	-400.738395	-400.781766	30.766	
C	-0.0490255726	 1.6413115262	 0.2579105105	-0.379985
C	-0.0883011328	 0.119560541	 0.0210440813	-0.265981
C	 0.7454350699	-0.6012884857	 0.9878309464	 0.334729
C	 1.4368015313	-1.1720158327	 1.7872695224	-0.475046
C	-1.5031057732	-0.3936569639	 0.0473224365	 0.417788
N	-2.5860680481	 0.2397917772	 0.3648253254	-0.30783
C	-3.5986887022	-0.7009725596	 0.209679838	-0.116243
C	-3.0556061542	-1.8685119594	-0.2010719393	-0.040659
O	-1.7054725612	-1.6862968064	-0.3128357784	-0.174385
H	 0.9832278943	 1.9942048566	 0.208716937	 0.124307
H	-0.6442186421	 2.1558279835	-0.4994411564	 0.131117
H	-0.4610057232	 1.8847059852	 1.2386454737	 0.147422
H	 0.3101188565	-0.0895182864	-0.982163987	 0.130739
H	 2.0446452541	-1.6846101774	 2.4911414157	 0.200757
H	-4.6317649069	-0.4619522263	 0.4047094757	 0.126022
H	-3.4320599898	-2.8466170617	-0.4451982514	 0.14725
30.281	106.1731	182.1621	213.7744	226.0646	289.2194	400.6189	457.6181	545.8479	626.5239	630.9848	644.9365	672.7023	762.5542	789.0346	863.0533	870.2475	932.4893	955.6086	1024.3311	1078.616	1107.6564	1121.7457	1148.9478	1170.0375	1216.1588	1309.3606	1325.3604	1390.2031	1411.6264	1487.1256	1493.0316	1556.0439	1614.2877	2240.1284	3006.2786	3061.3739	3140.4594	3148.1746	3266.2443	3302.5111	3504.7586
CC(C#C)C1=NC=CO1	C[C@@H](C#C)c1ncco1	
InChI=1S/C7H7NO/c1-3-6(2)7-8-4-5-9-7/h1,4-6H,2H3	InChI=1S/C7H7NO/c1-3-6(2)7-8-4-5-9-7/h1,4-6H,2H3/t6-/m0/s1
