18
gdb 90286	4.40624	1.13061	0.9411	3.9929	81.76	-0.2319	-0.0441	0.1878	1232.4585	0.147915	-401.937172	-401.929319	-401.928375	-401.969509	30.293	
C	-0.0983599515	 1.4920403438	-0.0859166342	-0.326325
N	-0.0395553072	 0.0514456027	 0.0780307054	-0.100175
C	-1.2451385111	-0.6227198529	 0.6717588721	-0.259372
C	-0.2646517317	-1.505657601	 1.3972422346	 0.288622
C	 0.1733134846	-2.7438489668	 1.6173757641	-0.348833
C	 1.6730754759	-2.7104544633	 1.5703488634	 0.386002
O	 2.431646838	-3.6105199186	 1.8297063021	-0.320965
C	 2.0838720371	-1.3170746126	 0.9968913631	-0.366802
C	 0.8136052008	-0.4874510431	 1.1830214139	-0.000521
H	 0.8739840541	 1.8588558114	-0.4293136845	 0.129349
H	-0.8419431973	 1.7478837017	-0.8474860844	 0.126188
H	-0.3610894481	 2.0269893216	 0.8459272566	 0.094935
H	-1.818832415	 0.0410810038	 1.338990047	 0.107544
H	-1.9246743241	-1.0915927803	-0.0458017944	 0.128792
H	-0.3820594626	-3.6693322115	 1.6916840748	 0.118042
H	 2.9854526093	-0.9373083129	 1.4816173331	 0.120233
H	 2.2940189012	-1.4551263323	-0.0693677477	 0.143376
H	 0.9036138577	 0.2379234804	 2.008079705	 0.079911
90.9031	169.8427	211.5725	239.8388	295.8205	334.9799	415.9197	490.13	529.0681	587.8012	651.8558	710.7854	774.7287	822.675	849.1787	874.0971	945.8598	976.0008	1000.4552	1061.8011	1080.399	1110.8883	1130.8261	1136.3846	1175.6986	1186.3106	1196.272	1227.9263	1241.5533	1292.218	1311.9681	1351.8165	1446.4616	1450.5338	1482.7116	1495.1882	1498.7793	1717.1228	1824.1463	2931.8748	2964.6836	2976.5163	3060.1039	3064.5555	3082.6169	3106.9533	3122.2448	3227.0769
CN1CC2=CC(=O)CC12	CN1C[C]2[CH]C(=O)C[C@@H]12	
InChI=1S/C7H9NO/c1-8-4-5-2-6(9)3-7(5)8/h2,7H,3-4H2,1H3	InChI=1S/C7H9NO/c1-8-4-5-2-6(9)3-7(5)8/h2,7H,3-4H2,1H3/t7-/m1/s1
