19
gdb 122276	2.75326	0.89515	0.74803	1.625	73.77	-0.2542	-0.0406	0.2136	1553.1178	0.155822	-460.13602	-460.126005	-460.125061	-460.172142	34.531	
C	-0.218800672	 1.2774044519	-5.4769*^-6	-0.230125
O	 0.1785788968	-0.0709436709	 0.0686094527	-0.231302
C	 0.5797567821	-0.5872835552	-1.1808016062	-0.057605
C	 0.9999238794	-2.0397237014	-0.9649363504	-0.300608
C	 1.3942605506	-2.7289075116	-2.2482988387	 0.294147
C	 0.9519898612	-4.1095436626	-2.5560495937	-0.220854
O	 0.3466561646	-3.0049803047	-3.2019455962	-0.262483
C	 2.6655850326	-2.3061688221	-2.9236650045	 0.127756
O	 3.5062536095	-1.608099956	-2.4176426686	-0.254324
H	 0.5984423821	 1.9270713689	-0.3512137716	 0.106758
H	-1.0796663285	 1.4166953151	-0.6733627913	 0.103848
H	-0.5062862202	 1.5854656948	 1.00819372	 0.126772
H	-0.2492369785	-0.5391719105	-1.90644275	 0.098296
H	 1.418072945	-0.0028960621	-1.5911564553	 0.106468
H	 1.8496352088	-2.0658346366	-0.2754613783	 0.131471
H	 0.1710609541	-2.5789103054	-0.4974307371	 0.11488
H	 1.5584354844	-4.7533357851	-3.1926543879	 0.124644
H	 0.3442789933	-4.6230942915	-1.8127700406	 0.132368
H	 2.7623172147	-2.7031073051	-3.9587942055	 0.089893
52.5465	74.9314	114.0726	118.9358	141.0033	219.7807	233.4602	304.8771	327.6155	376.6706	434.4965	506.7174	547.3969	768.5935	825.221	854.0139	882.1371	958.5081	995.1235	1037.5308	1074.037	1084.7828	1137.16	1162.6258	1165.3948	1182.4359	1227.6207	1232.9188	1294.0991	1301.9422	1334.477	1359.4629	1422.5299	1433.5198	1471.4011	1481.8709	1485.4057	1504.7621	1521.5132	1536.7912	1825.9025	2893.5395	2962.2874	2973.8827	3004.1226	3014.2452	3058.6878	3081.9548	3108.2102	3113.9876	3172.5668
COCCC1(CO1)C=O	COCC[C@]1(CO1)C=O	
InChI=1S/C6H10O3/c1-8-3-2-6(4-7)5-9-6/h4H,2-3,5H2,1H3	InChI=1S/C6H10O3/c1-8-3-2-6(4-7)5-9-6/h4H,2-3,5H2,1H3/t6-/m1/s1
