21
gdb 114523	2.34831	1.56947	1.14474	2.957	78.17	-0.2416	0.0629	0.3046	1151.6577	0.182999	-424.186441	-424.177782	-424.176838	-424.219863	33.456	
C	-0.1454905436	 1.4829831096	-0.0917774205	-0.24416
O	-0.1626718478	 0.193581839	 0.4832778941	-0.251406
C	-1.2944804545	-0.5779093496	 0.1190032854	 0.124939
C	-1.2736812982	-1.2136796581	-1.3086783164	-0.264283
C	-1.0987516784	-2.6081612047	-0.6682282739	-0.016519
C	 0.3728522179	-2.9426679184	-0.2846358322	-0.283898
C	 0.0525223042	-2.5901593539	 1.2036020407	 0.174563
O	 0.9486340164	-1.8455315816	 1.9751514106	-0.441389
C	-1.3110033438	-1.9911106472	 0.7678125462	-0.12639
H	 0.7552790991	 1.9875931664	 0.2644568111	 0.132997
H	-0.1193458348	 1.4404260369	-1.1896206078	 0.115356
H	-1.0275339377	 2.0657158441	 0.2132426207	 0.112488
H	-2.2041365512	 0.0045727935	 0.3225562063	 0.072402
H	-2.2281045417	-1.0870065439	-1.8275320764	 0.099841
H	-0.4677750618	-0.8822796233	-1.9709183508	 0.099668
H	-1.7032775924	-3.4298464699	-1.0503278099	 0.065585
H	 0.7027596927	-3.9684391717	-0.4644979182	 0.09714
H	 1.0980972144	-2.2606318676	-0.7376399061	 0.097335
H	-0.1388962542	-3.5142048933	 1.7603367053	 0.084411
H	 0.9455628181	-0.9541369642	 1.602331514	 0.289159
H	-2.1739173625	-2.187673022	 1.4055027079	 0.062164
69.0397	111.9429	173.2683	194.7218	274.4258	347.0737	354.7514	410.9613	439.9646	530.9638	579.752	627.2127	733.4445	767.4349	800.1158	867.4785	888.9467	940.9306	949.5953	996.8316	1020.7509	1054.5313	1069.875	1092.6168	1128.821	1139.9179	1161.3879	1181.3454	1184.8147	1196.5336	1219.215	1241.3862	1263.6049	1274.3818	1291.8196	1311.0679	1326.9036	1348.8103	1390.6465	1466.2204	1470.4469	1482.2791	1484.1395	1488.6804	1509.7657	2985.8608	2995.3683	3040.047	3042.7327	3047.7637	3055.8669	3094.9578	3099.1735	3106.6637	3120.9019	3122.091	3757.0487
COC1CC2CC(O)C12	CO[C@H]1C[C@H]2C[C@@H](O)[C@@H]12	
InChI=1S/C7H12O2/c1-9-6-3-4-2-5(8)7(4)6/h4-8H,2-3H2,1H3	InChI=1S/C7H12O2/c1-9-6-3-4-2-5(8)7(4)6/h4-8H,2-3H2,1H3/t4-,5-,6+,7+/m1/s1
