14
gdb 29057	2.66261	1.81454	1.16716	3.1834	77.7	-0.2341	-0.0707	0.1634	995.3184	0.10314	-432.915148	-432.907774	-432.90683	-432.947362	27.776	
N	 0.020221735	 1.2613113143	 0.5280598521	-0.501214
C	-0.0305906723	-0.0122678061	 0.1106496345	 0.320506
N	-1.1879227575	-0.579147591	-0.0970651358	-0.322379
C	-1.3796423316	-1.8933996565	-0.3370312514	 0.013269
C	-0.5479979711	-2.9615550494	-0.1164857225	-0.125143
C	 0.7880376891	-2.8659628977	 0.3566933228	 0.014776
N	 1.6129274274	-1.861621134	 0.3327083332	-0.274722
C	 1.3498550288	-0.6076754142	-0.1480739043	 0.320177
O	 2.1891680546	 0.1090737061	-0.6612311321	-0.347462
H	 0.890258009	 1.7553701401	 0.404881885	 0.288878
H	-0.8400750228	 1.7752573495	 0.6306633848	 0.273586
H	-2.3876906567	-2.1155602874	-0.6851087168	 0.117434
H	-0.966440767	-3.9570229897	-0.2240332155	 0.101247
H	 1.2016526851	-3.7773712741	 0.795788096	 0.121047
54.2408	156.191	308.687	323.0794	336.6626	422.4635	450.7924	488.1507	546.83	598.155	647.9459	701.3302	740.5897	797.7147	840.4149	922.607	967.2314	995.1631	1009.3429	1029.1999	1145.0727	1211.7512	1346.2976	1413.6449	1443.7223	1489.1	1501.4429	1595.6902	1639.2912	1678.9933	1751.1038	3096.0838	3136.4887	3184.4632	3584.713	3718.4863
NC1=NC=CC=NC1=O	Nc1ncccnc1=O	
InChI=1S/C5H5N3O/c6-4-5(9)8-3-1-2-7-4/h1-3H,(H2,6,7,8,9)	InChI=1S/C5H5N3O/c6-4-5(9)8-3-1-2-7-4/h1-3H,(H2,6,7,8,9)
