18
gdb 19916	4.47895	1.46044	1.31801	1.1681	70.76	-0.2076	0.0765	0.2841	974.444	0.154174	-347.709334	-347.702014	-347.70107	-347.740962	28.791	
O	-0.1614661256	 1.3848457173	 0.7263704214	-0.43809
C	 0.0988504981	 0.2033925721	-0.0265455692	-0.127249
C	-1.2340153419	-0.5324947839	-0.1316585066	 0.010487
C	-1.8896543033	-1.2388763099	-1.2895364416	-0.098051
C	-1.019490313	-2.2507236976	-2.0855524923	-0.050372
C	 0.4026896876	-2.3917748612	-1.6151144852	-0.302093
C	-0.7069373232	-3.0002430849	-0.8012951662	-0.050372
C	-1.5749165147	-1.9936481483	 0.0037161987	-0.098048
H	 0.6639279151	 1.8717722644	 0.8092144327	 0.282525
H	 0.4850408914	 0.4595471023	-1.0241834507	 0.098369
H	 0.851232927	-0.4186356865	 0.4804512561	 0.09837
H	-1.9804610376	 0.0605197991	 0.3960922563	 0.109433
H	-2.8603634881	-0.9297633559	-1.6577585594	 0.085819
H	-1.3471252683	-2.6571310276	-3.0336132443	 0.087227
H	 0.971777094	-3.1248773518	-2.1814662806	 0.109226
H	 1.0065599137	-1.5609154543	-1.2771744259	 0.109772
H	-0.7596598236	-4.0658919376	-0.6197916853	 0.087227
H	-2.2727196576	-2.3390004957	 0.7568543621	 0.085819
68.823	207.8168	216.1842	265.6057	356.9818	391.9972	460.8764	638.5551	686.1467	705.2923	711.5835	782.2973	866.888	890.5532	904.6555	910.3535	961.2359	1008.731	1010.7657	1030.7881	1051.6332	1061.4196	1065.7716	1078.0852	1092.0086	1130.4114	1171.3006	1209.7612	1262.7117	1263.8307	1280.3943	1297.2649	1331.827	1347.9245	1420.4888	1468.4736	1496.1995	1529.4801	2974.7597	3009.2704	3119.4347	3133.1557	3173.1701	3183.2434	3188.8269	3199.457	3232.272	3825.6496
OCC1C2C3CC3C12	OC[C@H]1[C@H]2[C@H]3C[C@H]3[C@@H]12	
InChI=1S/C7H10O/c8-2-5-6-3-1-4(3)7(5)6/h3-8H,1-2H2	InChI=1S/C7H10O/c8-2-5-6-3-1-4(3)7(5)6/h3-8H,1-2H2/t3-,4+,5-,6+,7-
