22
gdb 57442	2.76131	1.1097	1.0211	3.8319	83.72	-0.2467	0.0087	0.2553	1305.2868	0.191436	-404.350881	-404.340535	-404.339591	-404.386139	38.177	
C	-0.2270103289	 1.6089496209	-0.1797689507	-0.43667
C	-0.0189899943	 0.0867119205	-0.1050631622	 0.229494
C	 0.9699800321	-0.2475813609	 1.0305214175	-0.405228
C	-1.3728815508	-0.5935022458	 0.1863956379	-0.399262
C	 0.5091416766	-0.5262433273	-1.4064265201	-0.006651
C	 0.2573572511	 0.0483409757	-2.778171283	-0.261394
N	 1.5800249324	 0.0318947324	-2.2106017144	-0.064579
C	 2.4236589294	 1.102980822	-2.0314839918	 0.13441
O	 2.5264809716	 2.0386913287	-2.7900422706	-0.304674
H	 0.6843566853	 2.1467603528	-0.4550455782	 0.137913
H	-1.0079807835	 1.8772250713	-0.8969889975	 0.119379
H	-0.5423220718	 1.9832071192	 0.7994792645	 0.117234
H	 0.5691024968	 0.0740321416	 1.9974147298	 0.115839
H	 1.1583048187	-1.325044803	 1.0881450043	 0.114228
H	 1.9318666999	 0.2538757577	 0.8853137145	 0.118335
H	-2.0969898939	-0.3930447412	-0.6099312402	 0.118285
H	-1.2630775598	-1.6796286806	 0.2770971488	 0.113731
H	-1.7933328255	-0.2216908285	 1.1262456225	 0.116342
H	 0.5575135189	-1.6148365636	-1.3504727017	 0.097753
H	 0.0855862163	-0.6207988655	-3.6175148765	 0.125497
H	-0.2273004754	 1.0171200425	-2.8571447409	 0.136528
H	 3.0719986449	 0.9708495611	-1.1443827623	 0.08349
43.743	95.0434	183.8528	198.7828	209.0758	234.027	259.3004	284.9996	311.2063	329.906	363.9355	385.7758	485.2161	501.883	659.9666	708.0155	818.9241	876.0603	932.9786	937.0833	960.1631	969.3091	1000.9463	1035.2708	1043.8453	1066.2096	1098.888	1121.3952	1144.749	1179.3116	1226.6875	1235.1605	1288.6391	1388.86	1398.1384	1403.0054	1415.2502	1428.7855	1444.2833	1480.6031	1482.2898	1484.6913	1503.4299	1505.2876	1516.4277	1516.8696	1788.1402	2950.2983	3027.5862	3031.085	3041.8077	3090.5014	3096.3612	3100.8557	3101.8286	3104.1762	3107.7137	3112.3906	3118.5892	3201.135
CC(C)(C)C1CN1C=O	CC(C)(C)[C@H]1CN1C=O	
InChI=1S/C7H13NO/c1-7(2,3)6-4-8(6)5-9/h5-6H,4H2,1-3H3	InChI=1S/C7H13NO/c1-7(2,3)6-4-8(6)5-9/h5-6H,4H2,1-3H3/t6-,8?/m1/s1
