21
gdb 95482	2.07473	1.51965	0.92077	3.7022	86.37	-0.2362	-0.0463	0.19	1295.9474	0.183675	-387.129761	-387.120966	-387.120022	-387.163603	33.6	
C	-0.3159428346	 1.4622969127	 0.0254078534	-0.392925
C	 0.0255417152	-0.0344827343	-0.0272379792	 0.007898
C	 0.785890265	-0.3653632342	-1.3218184517	-0.195478
C	 0.7230742907	-1.8271251192	-1.7693837488	-0.267079
C	 1.1739867855	-2.8991177826	-0.8214679563	-0.039467
C	 1.3165361543	-2.9171208047	 0.510714646	-0.138435
C	 1.0666286568	-1.8864980538	 1.5475003072	 0.346133
O	 1.0945769299	-2.2360606092	 2.7147251774	-0.325362
C	 0.8259236833	-0.415936384	 1.2279667962	-0.294667
H	 0.5956331628	 2.0716178574	 0.004110844	 0.115539
H	-0.9331254702	 1.7564373589	-0.8296580213	 0.111344
H	-0.8622534255	 1.7146523363	 0.9395964294	 0.116908
H	-0.9203359989	-0.5951874983	-0.0253336293	 0.07766
H	 0.3822743205	 0.2421817939	-2.1405565108	 0.095727
H	 1.8349555219	-0.0608985906	-1.2076419912	 0.099407
H	-0.3108637682	-2.0724542711	-2.0619427835	 0.123575
H	 1.3018861614	-1.938465549	-2.6957730761	 0.112388
H	 1.3774794526	-3.8453307044	-1.3233835576	 0.10453
H	 1.6157726866	-3.8540285221	 0.9743551503	 0.103865
H	 1.8201373775	 0.0523771738	 1.1619559228	 0.119209
H	 0.3569177032	-0.0013383456	 2.1250357891	 0.119232
49.182	107.6579	183.1323	231.0008	306.7973	318.778	334.7751	366.0245	416.4554	482.8046	528.0148	612.3273	682.8591	744.7062	809.4403	842.9654	880.6186	908.4369	932.3066	968.4016	983.0189	1042.5564	1055.4565	1092.7123	1109.6794	1155.2671	1175.1943	1217.8259	1265.9163	1295.6034	1303.8399	1313.0275	1338.1295	1376.3156	1392.6375	1404.5001	1416.9233	1428.1897	1456.5489	1461.8576	1491.8532	1499.5071	1500.9475	1701.5258	1744.7582	2984.8562	2995.4587	3005.8032	3016.5912	3027.0984	3035.7383	3056.9461	3086.1414	3093.7402	3104.6529	3122.0396	3164.6126
CC1CCC=CC(=O)C1	C[C@H]1CCC=CC(=O)C1	
InChI=1S/C8H12O/c1-7-4-2-3-5-8(9)6-7/h3,5,7H,2,4,6H2,1H3	InChI=1S/C8H12O/c1-7-4-2-3-5-8(9)6-7/h3,5,7H,2,4,6H2,1H3/t7-/m0/s1
