16
gdb 25701	3.56521	0.96742	0.76524	1.9721	84.48	-0.197	0.0037	0.2007	1449.6115	0.124236	-400.752834	-400.743791	-400.742847	-400.787754	32.409	
C	-0.0948593431	 1.4426387355	 0.0099587756	-0.510107
C	-0.0353812672	-0.0109020051	-0.0014538999	 0.209799
C	 0.0352807316	-1.2164969817	-0.0034334511	-0.147913
C	 0.0541071601	-2.6286402067	-0.0103343747	 0.127158
C	 1.1286774545	-3.4729798133	-0.0842338282	-0.134978
O	 0.7349835567	-4.7581915363	-0.078071875	-0.144989
C	-0.6368676587	-4.7645822095	 0.0047447156	-0.074169
C	-1.1116088425	-3.4895066451	 0.0505200399	 0.089453
N	-2.4182582877	-3.0273425292	 0.2007899701	-0.622052
H	 0.8874919913	 1.8734383335	 0.2332971701	 0.152562
H	-0.4177519349	 1.8420579379	-0.9584645649	 0.147379
H	-0.7950254555	 1.8076329423	 0.7698963463	 0.149971
H	 2.1884318555	-3.2912296712	-0.1499998625	 0.138142
H	-1.1035870734	-5.7340317777	 0.0252918998	 0.125396
H	-3.1190712885	-3.6301286414	-0.2074682967	 0.2453
H	-2.5271534782	-2.0784451621	-0.1336386842	 0.249046
31.6623	81.371	107.0775	231.4362	256.3102	264.6199	332.241	377.8043	463.9032	489.656	557.7604	598.6317	648.5253	667.5692	709.1474	748.2068	775.9485	884.1017	982.0973	1051.7385	1052.6611	1072.3577	1106.2903	1212.9905	1251.5832	1260.522	1348.9992	1412.4546	1414.8545	1475.304	1478.5439	1582.7984	1641.9195	1669.7086	2353.661	3023.2763	3080.5681	3087.5142	3278.4715	3287.9989	3542.4928	3638.7058
CC#CC1=COC=C1N	CC#Cc1cocc1N	
InChI=1S/C7H7NO/c1-2-3-6-4-9-5-7(6)8/h4-5H,8H2,1H3	InChI=1S/C7H7NO/c1-2-3-6-4-9-5-7(6)8/h4-5H,8H2,1H3
