19
gdb 106245	2.60632	1.25117	1.0394	3.2547	77.08	-0.2366	-0.0056	0.231	1226.3307	0.157568	-423.02011	-423.011013	-423.010069	-423.05403	34.115	
C	 0.0686158501	 1.5166156507	-0.1674867656	-0.376437
C	-0.010071158	 0.0080414734	 0.1077518003	-0.292212
C	-1.4213343737	-0.5113238072	 0.0673500379	 0.313733
C	-2.4936624905	-0.2007435848	 1.1328997511	-0.409278
C	-2.8807073967	-1.6959418614	 1.0907293602	 0.442609
O	-3.5623849791	-2.3808442967	 1.8010652108	-0.327997
C	-1.9156591539	-2.0145809983	-0.0074459522	-0.32308
C	-2.0871985403	-1.0186404677	-1.1493197978	 0.063374
O	-3.3286284676	-0.5106843585	-1.5358238241	-0.419001
H	 1.1043512388	 1.8665063606	-0.1266688909	 0.116906
H	-0.3334818471	 1.7580025685	-1.1564796705	 0.126415
H	-0.5061880079	 2.0832301922	 0.5722025772	 0.12546
H	 0.5955295922	-0.5343588822	-0.6285725765	 0.101429
H	 0.4281486705	-0.2102140985	 1.0900287133	 0.105713
H	-2.0717369613	 0.0518892883	 2.1104792987	 0.124094
H	-3.2633854774	 0.5226304238	 0.8599341405	 0.134671
H	-1.3731878863	-2.9433688814	-0.1444685187	 0.103896
H	-1.4107326945	-1.2313789787	-1.9798907088	 0.095845
H	-3.8495961573	-1.231547092	-1.9056440549	 0.293859
77.1915	97.14	144.36	204.0456	258.6513	279.3254	321.3929	350.0213	421.673	465.9728	506.3584	604.9801	641.323	686.7985	756.3944	792.0901	863.319	908.6863	959.5059	968.4029	979.8998	1025.6086	1049.9351	1088.6864	1104.0241	1114.8786	1163.723	1212.9972	1218.4587	1247.7197	1297.5341	1322.1204	1348.6996	1365.4175	1411.3394	1442.5582	1481.5805	1491.1279	1497.8544	1507.9324	1878.2397	3021.7907	3037.6381	3056.1219	3065.8816	3083.6804	3108.3385	3111.6617	3130.835	3182.516	3808.0379
CCC12CC(=O)C1C2O	CC[C@]12CC(=O)[C@H]1[C@H]2O	
InChI=1S/C7H10O2/c1-2-7-3-4(8)5(7)6(7)9/h5-6,9H,2-3H2,1H3	InChI=1S/C7H10O2/c1-2-7-3-4(8)5(7)6(7)9/h5-6,9H,2-3H2,1H3/t5-,6+,7-/m0/s1
