16
gdb 7909	3.48974	1.81152	1.28955	4.4663	67.99	-0.2645	-0.0344	0.2301	955.4472	0.130049	-383.807142	-383.799323	-383.798379	-383.839323	28.426	
C	-0.1070670822	 1.539717203	 0.0112977569	-0.393731
C	 0.0435257089	 0.0210629903	-0.0380659666	 0.073834
O	 0.9154359134	-0.3477671761	-1.1171750063	-0.23496
C	 1.9616873485	-1.0910498515	-0.639671832	 0.382715
O	 2.8307310645	-1.5231290116	-1.3449816593	-0.348748
C	 1.7970983576	-1.2345808839	 0.8349959266	 0.173417
C	 2.791592229	-1.9936134391	 1.646025162	-0.488985
C	 0.6803789301	-0.59139231	 1.1781864133	-0.210232
H	 0.8603809833	 2.0133376083	 0.1989019608	 0.13256
H	-0.5022362647	 1.9100728139	-0.9378399961	 0.139266
H	-0.7985837311	 1.824545136	 0.8103856643	 0.122296
H	-0.9354371585	-0.4368192426	-0.2389981052	 0.109657
H	 2.8713566212	-3.0250440556	 1.2864780104	 0.149665
H	 3.7887616517	-1.5530697464	 1.5406546132	 0.149279
H	 2.5230739095	-2.0086895288	 2.7046952316	 0.12472
H	 0.2563451688	-0.4906526958	 2.1698631664	 0.119245
109.8951	130.4661	160.1208	235.5705	255.9171	330.5534	366.1289	499.2106	541.9987	609.3097	714.6553	776.6373	788.8115	873.7432	887.8042	959.0098	1012.914	1048.942	1068.1577	1092.6006	1110.391	1144.9741	1221.6103	1327.7029	1337.4485	1361.1333	1404.0858	1415.9653	1473.0507	1483.6333	1486.2826	1495.4702	1720.7949	1861.8023	3009.4083	3039.9987	3044.4472	3094.8561	3120.0066	3127.7946	3131.1879	3210.5079
CC1OC(=O)C(C)=C1	C[C@H]1OC(=O)C(=C1)C	
InChI=1S/C6H8O2/c1-4-3-5(2)8-6(4)7/h3,5H,1-2H3	InChI=1S/C6H8O2/c1-4-3-5(2)8-6(4)7/h3,5H,1-2H3/t5-/m1/s1
