19
gdb 17437	2.68243	2.5494	1.86232	1.7925	74.11	-0.2296	0.0836	0.3132	829.3136	0.16573	-327.869677	-327.862286	-327.861342	-327.900728	29.328	
C	-0.0556317727	 1.5754233389	 0.0093618918	-0.42439
C	 0.0935806433	 0.0650503193	 0.063277166	 0.062748
N	 1.1148892407	-0.5589130303	-0.8467264343	-0.159521
C	 2.3807071237	-0.6273516779	-0.0270324769	-0.037865
C	 2.1416171989	-0.0479143014	 1.3642192759	-0.289048
C	 0.7243117873	-0.6830111187	 1.267149397	 0.283713
C	-0.0607373149	-1.0499040912	 2.4983926347	-0.514088
C	 1.3186005381	-1.6424682651	 0.151128215	-0.097766
H	 0.8855552905	 2.0959906226	 0.2022054428	 0.121261
H	-0.4033395374	 1.8777643503	-0.9838115723	 0.127401
H	-0.794316782	 1.918218441	 0.7426141195	 0.114162
H	-0.8632750023	-0.4071762327	-0.1912991797	 0.073837
H	 3.3027249055	-0.6923121974	-0.5893908802	 0.094884
H	 2.7530084754	-0.5740679698	 2.1032649379	 0.101636
H	 2.2222870684	 1.0312648249	 1.5290857398	 0.092291
H	-0.3292622607	-0.1541198459	 3.0711064068	 0.12164
H	-0.9898159475	-1.5696459185	 2.2388178383	 0.11835
H	 0.515251832	-1.7040227725	 3.1619604751	 0.118795
H	 1.2460982638	-2.7000669054	-0.067758857	 0.09196
155.4938	192.0816	208.272	273.8822	299.5475	323.2873	490.9201	565.2972	607.6976	702.1363	733.7721	798.5704	800.7843	846.2748	869.2987	913.6311	950.4403	970.6146	1001.5029	1016.5922	1058.2487	1104.4727	1110.475	1120.3788	1151.0851	1168.7147	1203.5495	1213.8303	1232.9565	1268.8384	1318.5211	1350.7411	1395.7059	1409.0973	1417.7611	1484.5868	1488.7779	1491.2545	1494.7799	1512.7588	3022.0279	3028.6598	3036.6268	3046.6052	3085.8698	3091.0412	3096.4089	3100.3742	3121.9336	3192.0085	3208.8536
CC1N2C3CC1(C)C23	C[C@H]1N2[C@H]3C[C@]1(C)[C@@H]23	
InChI=1S/C7H11N/c1-4-7(2)3-5-6(7)8(4)5/h4-6H,3H2,1-2H3	InChI=1S/C7H11N/c1-4-7(2)3-5-6(7)8(4)5/h4-6H,3H2,1-2H3/t4-,5+,6+,7+,8?/m1/s1
