14
gdb 24768	3.42423	1.79862	1.17922	2.7836	79.13	-0.2148	-0.0826	0.1322	956.3229	0.104026	-399.623699	-399.617371	-399.616426	-399.654418	25.085	
O	 0.0553009768	-0.052812832	 0.0014444625	-0.334718
C	-0.024255909	 1.1474294698	 0.0093506902	 0.403624
C	-1.2125475987	 2.0504791777	 0.0314567673	-0.23606
C	-0.7954667791	 3.3352414842	 0.0327182753	-0.202828
C	 0.6582454363	 3.35989241	 0.0117695515	 0.355622
C	 1.7701151278	 4.1668111892	-0.0000163015	-0.304672
C	 2.9132643246	 3.2942092266	-0.0213374813	-0.145767
C	 2.4599308326	 1.9979637158	-0.0217742074	-0.088829
N	 1.0834663766	 2.049643144	-0.0016138533	-0.091796
H	-2.2214390207	 1.6687884377	 0.0438200916	 0.131838
H	-1.4183808753	 4.2190699831	 0.0466264835	 0.133188
H	 1.7856491406	 5.246070065	 0.0056305118	 0.116813
H	 3.9481350184	 3.599678489	-0.0346792926	 0.112176
H	 2.981727069	 1.0550915098	-0.0344438974	 0.151408
134.3359	199.6001	302.6109	390.6246	556.8986	596.0356	623.8418	670.2962	691.8437	725.8954	755.0537	760.8621	803.6003	829.6289	859.6756	915.3007	942.4911	1018.8781	1048.3991	1068.215	1102.7266	1177.9054	1247.3881	1263.2412	1335.0402	1404.9044	1426.4298	1495.8061	1572.365	1616.4921	1839.0363	3231.9436	3246.9377	3259.053	3266.3039	3282.3303
O=C1C=CC2=CC=CN12	O=C1C=Cc2cccn12	
InChI=1S/C7H5NO/c9-7-4-3-6-2-1-5-8(6)7/h1-5H	InChI=1S/C7H5NO/c9-7-4-3-6-2-1-5-8(6)7/h1-5H
