19
gdb 71877	2.91282	1.89442	1.44014	1.5455	80.63	-0.2193	0.0004	0.2197	944.2097	0.160451	-385.839191	-385.83209	-385.831146	-385.869987	30.154	
O	 0.086162015	 1.3920646425	 0.0710099369	-0.498478
C	 0.0223846589	-0.0130917507	 0.0519605821	 0.417969
C	 0.1496821707	-0.6616562737	-1.3963140285	-0.300928
C	-1.3290316155	-1.1939446389	-1.3499260741	-0.021514
C	-1.5620140219	-2.6442921121	-0.7727177841	-0.293691
C	-1.0432016117	-2.0302856483	 0.5131976577	 0.162364
C	 0.1500432833	-2.1156561822	 1.1121132676	-0.15891
C	 0.785683502	-0.7327648047	 1.1987386073	-0.316233
C	-1.3964772567	-0.6084443774	 0.094092389	-0.102646
H	 1.0049864849	 1.6525973201	-0.0561887889	 0.274018
H	 0.2510016996	 0.1342267819	-2.1378919388	 0.104927
H	 0.940023134	-1.4004339531	-1.5526501191	 0.092799
H	-1.9833753505	-0.8781799019	-2.1650256693	 0.071811
H	-2.6350937644	-2.865385168	-0.7896482455	 0.10732
H	-1.0060159707	-3.4897360216	-1.1868612786	 0.101018
H	 0.7228632224	-3.0296329876	 1.2300571806	 0.089335
H	 1.8678254302	-0.7863730494	 1.0206327084	 0.092222
H	 0.6399550872	-0.1988175257	 2.1476041076	 0.107485
H	-2.2504190971	-0.0865306291	 0.5257796698	 0.07113
231.0646	261.341	265.3475	326.3952	342.6207	406.2125	429.7805	563.0035	588.3185	656.2004	730.2794	766.1721	805.0538	839.4355	849.7531	893.7276	914.4523	919.3569	940.8654	955.8239	1001.3443	1042.0212	1053.9126	1089.2362	1095.8	1115.9156	1139.6324	1179.432	1193.7394	1213.8966	1220.3756	1227.9583	1264.8361	1278.355	1297.7231	1310.632	1382.8999	1455.7658	1479.459	1482.6599	1675.0208	3008.4447	3037.5047	3045.7288	3057.7882	3082.7001	3099.1339	3114.2407	3119.9919	3180.1416	3798.1739
OC12CC3CC(=CC1)C23	O[C@@]12C[C@H]3C[C]([CH]C1)[C@@H]23	
InChI=1S/C8H10O/c9-8-2-1-5-3-6(4-8)7(5)8/h1,6-7,9H,2-4H2	InChI=1S/C8H10O/c9-8-2-1-5-3-6(4-8)7(5)8/h1,6-7,9H,2-4H2/t6-,7-,8-/m1/s1
