20
gdb 5837	2.66617	1.58531	1.31996	2.9796	71.2	-0.2435	-0.0162	0.2273	1044.3805	0.172547	-386.157576	-386.147421	-386.146477	-386.192267	36.723	
C	 0.0916140248	 1.5611696382	-0.1987624195	-0.426239
C	 0.0341208308	 0.0398057983	 0.0253063478	-0.092741
C	 0.5687447176	-0.6694291107	-1.209020936	 0.165266
O	-0.1044915357	-1.3357445048	-1.9525168249	-0.259007
C	 0.7772257717	-0.4702019507	 1.2976194909	 0.341866
C	 2.1995425472	 0.080694184	 1.4350541626	-0.404305
C	-0.0397983543	-0.1612944882	 2.5590700457	-0.419091
O	 0.9482602952	-1.8898709127	 1.1729626713	-0.455909
H	 1.1051185113	 1.8938123956	-0.4441658157	 0.127692
H	-0.5641815286	 1.8501544336	-1.0252008916	 0.132988
H	-0.2341043675	 2.1063374171	 0.6916300229	 0.127531
H	-1.016249774	-0.2668402311	 0.1086595969	 0.081673
H	 1.6504153444	-0.5035603846	-1.4142303748	 0.074505
H	 2.1937009682	 1.1598527602	 1.6052267514	 0.117722
H	 2.6873807539	-0.3999983456	 2.2872604258	 0.12868
H	 2.7997914479	-0.1304894228	 0.5465368285	 0.124052
H	-1.0369115528	-0.6116598098	 2.4951574149	 0.108943
H	 0.4652131916	-0.5743199769	 3.4368702554	 0.125978
H	-0.1681830178	 0.9147109285	 2.7116082554	 0.11796
H	 0.0792648861	-2.2896213274	 1.0514878831	 0.282436
58.8207	70.8922	185.7445	208.8824	212.5079	245.3158	256.0238	294.4752	334.7847	345.5277	374.6466	407.7141	468.0685	488.638	557.4975	750.7492	872.749	902.5734	927.9155	945.5359	976.005	999.0517	1057.328	1088.8617	1144.3816	1160.9485	1210.5358	1216.5163	1302.338	1326.1834	1378.4378	1397.1503	1408.1833	1421.8782	1431.0877	1475.465	1483.2814	1495.2198	1498.9424	1502.4246	1507.0576	1830.7544	2873.165	3028.3364	3033.2568	3039.3277	3053.1518	3099.3822	3108.8058	3112.8535	3116.7782	3124.5522	3132.5522	3796.2177
CC(C=O)C(C)(C)O	C[C@@H](C=O)C(C)(C)O	
InChI=1S/C6H12O2/c1-5(4-7)6(2,3)8/h4-5,8H,1-3H3	InChI=1S/C6H12O2/c1-5(4-7)6(2,3)8/h4-5,8H,1-3H3/t5-/m0/s1
