15
gdb 24499	3.94477	1.68157	1.17899	3.38	80.86	-0.2231	-0.0127	0.2103	971.2222	0.118136	-379.773814	-379.767773	-379.766829	-379.803959	25.014	
N	-0.0238319752	 1.3600926998	 0.0099306931	-0.382374
C	 1.2893578273	 1.7648935318	-0.000473081	 0.011804
N	 2.141799325	 0.7770472364	-0.0142833526	-0.330753
C	 1.3556903675	-0.3677440631	-0.0131365302	 0.275147
C	-0.0160247216	-0.0216579265	 0.0020752189	 0.33283
C	-1.0300607599	-0.9767516396	 0.0064942987	-0.252951
C	-0.633170635	-2.3079906871	-0.0048451704	-0.101819
C	 0.7261680057	-2.6708682133	-0.0200328647	-0.108775
C	 1.7308981265	-1.7137448626	-0.0243524836	-0.224863
H	-0.8322865534	 1.9581138433	 0.0211584123	 0.266019
H	 1.5493788488	 2.8144895786	 0.0029281722	 0.133932
H	-2.0789367952	-0.7006360944	 0.0181902947	 0.090669
H	-1.3888938725	-3.0862036858	-0.0019241831	 0.093485
H	 0.9892582879	-3.7231693389	-0.0285081675	 0.092561
H	 2.7798369742	-1.9869701386	-0.0360352269	 0.105086
227.7074	257.4768	416.6011	433.1096	452.4617	550.4527	590.7651	628.6267	654.474	764.1966	790.3707	795.8626	859.8734	875.7428	887.202	925.8942	945.202	966.9928	1029.6005	1100.8533	1129.8822	1171.161	1204.0251	1277.5594	1288.541	1337.1085	1382.2032	1419.4868	1478.9299	1522.2772	1539.1423	1622.5706	1663.5603	3173.2136	3182.9268	3194.9363	3204.782	3238.6014	3671.4
N1C=NC2=C1C=CC=C2	[nH]1cnc2c1cccc2	
InChI=1S/C7H6N2/c1-2-4-7-6(3-1)8-5-9-7/h1-5H,(H,8,9)	InChI=1S/C7H6N2/c1-2-4-7-6(3-1)8-5-9-7/h1-5H,(H,8,9)
