17
gdb 47719	2.58952	1.77664	1.18458	1.621	69.66	-0.2497	0.0046	0.2543	1025.4835	0.138573	-455.126195	-455.11869	-455.117746	-455.158376	28.803	
N	-0.103040505	 1.2380779456	 0.3162454249	-0.538834
C	-0.0303983331	 0.0088372257	 0.0195826194	 0.336154
O	 1.1525475147	-0.6099007149	-0.2484146476	-0.254428
C	 1.1273973318	-1.8458083708	-0.9790868565	 0.012206
O	 0.1306128854	-2.7098940429	-0.5655334519	-0.214955
C	-1.1493664183	-2.1229763504	-0.7876712559	-0.185716
C	-1.2604013953	-0.8504640864	 0.0248090301	 0.246326
C	-2.0978243595	-0.7873601815	 1.2616423628	-0.253225
N	-2.5593728606	-0.1813750491	 0.0110221395	-0.3579
H	 0.8191016976	 1.6737651979	 0.2993780381	 0.226996
H	 1.0221639886	-1.6006744262	-2.0491595444	 0.100922
H	 2.0913302696	-2.3191035722	-0.788216231	 0.133031
H	-1.2839962115	-1.9061773575	-1.8592989759	 0.108497
H	-1.900974616	-2.8543298933	-0.4869883736	 0.127972
H	-2.6389373888	-1.6764578388	 1.5760270775	 0.120952
H	-1.7540252721	-0.1342657394	 2.0573923499	 0.136343
H	-2.3823468176	 0.822861444	 0.0452755647	 0.255657
84.3334	131.1196	279.1749	293.188	303.1411	410.8559	415.3573	467.0169	554.092	632.0715	708.9315	763.4118	857.3908	887.0952	917.1203	952.7657	969.1043	988.7285	1006.1268	1056.9941	1076.8977	1101.9973	1126.6218	1140.1041	1196.5231	1241.8721	1275.1257	1303.3982	1325.248	1359.2023	1372.3534	1423.3344	1462.4605	1494.7584	1503.3224	1521.2968	1740.5204	2966.6969	2986.5721	3109.2629	3119.836	3128.0229	3208.6066	3471.374	3492.993
N=C1OCOCC11CN1	[NH][C]1OCOC[C@]21CN2	
InChI=1S/C5H8N2O2/c6-4-5(1-7-5)2-8-3-9-4/h6-7H,1-3H2	InChI=1S/C5H8N2O2/c6-4-5(1-7-5)2-8-3-9-4/h6-7H,1-3H2/t5-/m0/s1
