17
gdb 75837	2.55198	1.63129	1.21735	4.2252	67.28	-0.2623	0.0057	0.268	1037.46	0.13511	-458.989169	-458.980981	-458.980037	-459.021659	31.498	
C	 0.0720090734	 1.6457557173	-0.0228603882	-0.404951
C	 0.0765489723	 0.1174820086	 0.0407023056	-0.22778
C	 0.8031043959	-0.5093695671	-1.1586413679	 0.432303
O	 0.7100461588	-0.2020244519	-2.3095402993	-0.332663
O	 1.6251734306	-1.5201012009	-0.7385106328	-0.216701
C	 1.630481732	-1.5962459041	 0.6743049647	 0.03419
C	 2.2317216241	-0.4183033401	 1.4006214151	-0.379574
C	 0.7265055424	-0.5494345312	 1.240898281	 0.369559
O	-0.0594995082	-0.859088558	 2.3471415287	-0.466323
H	 1.0816456964	 2.0516531697	 0.0924756939	 0.123996
H	-0.316681447	 1.9757547861	-0.9893054699	 0.149187
H	-0.5574920463	 2.0656516658	 0.7673087756	 0.11473
H	-0.9585108289	-0.2471237228	-0.003349174	 0.126373
H	 1.700329417	-2.6077328453	 1.0511596597	 0.128865
H	 2.6180454215	-0.6154798125	 2.3945082754	 0.128957
H	 2.7822181539	 0.3162812861	 0.8214146875	 0.130047
H	-0.116824468	-0.0759825997	 2.9056264348	 0.289786
92.9591	208.1042	214.4357	224.6044	282.1992	309.43	342.5544	446.7274	478.1831	511.247	578.0909	671.7794	699.931	726.5017	808.5336	894.3053	909.4753	931.2637	997.9242	1020.2892	1047.1003	1063.94	1100.2208	1113.7929	1132.3539	1169.0557	1205.0799	1276.8316	1295.1979	1341.8188	1352.8665	1407.3506	1409.7567	1478.1437	1497.2111	1498.7835	1885.0707	3030.3305	3043.3179	3111.8192	3128.6207	3130.8739	3212.178	3227.8984	3798.3388
CC1C(=O)OC2CC12O	C[C@H]1C(=O)O[C@H]2C[C@@]12O	
InChI=1S/C6H8O3/c1-3-5(7)9-4-2-6(3,4)8/h3-4,8H,2H2,1H3	InChI=1S/C6H8O3/c1-3-5(7)9-4-2-6(3,4)8/h3-4,8H,2H2,1H3/t3-,4-,6+/m0/s1
