13
gdb 46031	3.3577	1.2946	0.97123	4.6863	65.02	-0.2587	-0.0915	0.1673	1119.738	0.087911	-456.56849	-456.560593	-456.559649	-456.601504	28.442	
O	-0.051593497	-0.0030024704	-0.5708420951	-0.302957
C	-0.0357783866	 1.1557653709	-0.2918758183	 0.359822
O	-1.1021511453	 1.9835569119	-0.3994658555	-0.21485
C	-0.8293440861	 3.2924444402	 0.1423389816	-0.101466
C	 0.7089089851	 3.4518097092	 0.1555902642	-0.33544
C	 1.2315995369	 4.3246840658	 1.1839647696	 0.316782
C	 1.6517346406	 5.0402148619	 2.0517827203	-0.408073
C	 1.1657250435	 1.9860687856	 0.2188111598	 0.269891
O	 2.2141283194	 1.5351217015	 0.5663375296	-0.250309
H	-1.3330179817	 4.0225449996	-0.4910661416	 0.147669
H	-1.2370012856	 3.3489394763	 1.1554428336	 0.147158
H	 1.0270962549	 3.8028930329	-0.8383152401	 0.159333
H	 2.0323343318	 5.6723689244	 2.8161022719	 0.212441
61.2429	125.3508	165.3809	214.2998	327.4156	372.0613	421.3136	476.0395	558.0623	622.7926	635.4807	649.5187	663.6989	730.8922	821.6216	927.7839	1020.3648	1033.8893	1052.8524	1081.7507	1176.9542	1221.539	1258.5738	1315.8531	1397.2871	1522.932	1882.1526	1891.1976	2248.872	2997.8714	3072.1924	3139.5909	3501.6289
O=C1OCC(C#C)C1=O	O=C1OC[C@@H](C#C)C1=O	
InChI=1S/C6H4O3/c1-2-4-3-9-6(8)5(4)7/h1,4H,3H2	InChI=1S/C6H4O3/c1-2-4-3-9-6(8)5(4)7/h1,4H,3H2/t4-/m1/s1
