18
gdb 37110	3.81418	1.63328	1.52172	1.7422	79.2	-0.1911	0.0041	0.1952	927.21	0.149766	-364.720822	-364.714302	-364.713358	-364.751128	28.19	
C	-0.0043415288	 1.5237461414	-0.1919095759	-0.283317
C	 1.2938452588	 0.8087487077	 0.0669043735	-0.110374
C	-0.0353193593	 0.0482520058	 0.093466743	-0.115355
C	 0.452867442	-0.7852296523	-1.1296488651	 0.210444
N	 0.7913180982	 0.1104891213	-2.2697718386	-0.40429
C	 1.7443195358	-0.0435428469	-1.1589261755	 0.231222
C	 2.8792776492	-1.0528060034	-1.224469292	-0.360481
C	 2.1297672036	-2.3791258289	-1.3261228198	-0.072304
C	 0.800416518	-2.2237063304	-1.2227524194	-0.172817
H	-0.3403719141	 2.1414704802	 0.6356820657	 0.105756
H	-0.2396043935	 1.9018057467	-1.1784387043	 0.140099
H	 1.9566595541	 1.0665620291	 0.8835480942	 0.084645
H	-0.5674067848	-0.3818354734	 0.931932388	 0.087429
H	 1.0889117018	-0.4739775761	-3.0479529661	 0.230214
H	 3.5658492785	-0.8928733221	-2.0663037092	 0.114558
H	 3.4971943603	-1.0126368789	-0.3184312067	 0.119189
H	 2.634955987	-3.3209796157	-1.5190625656	 0.096688
H	 0.0742713434	-3.029421034	-1.2391100262	 0.098694
215.0496	254.4662	306.4172	412.3497	465.6093	510.3755	542.8319	636.5026	681.3329	732.758	765.0351	777.8807	825.1823	854.604	870.2073	916.3592	919.7218	941.0681	943.2839	974.7373	994.7137	1023.9418	1048.1921	1050.9564	1097.7237	1104.415	1130.9751	1170.0214	1177.7227	1209.5686	1259.0272	1274.693	1309.1749	1345.8129	1371.4684	1378.0845	1464.0179	1472.3733	1629.7752	3020.0796	3047.7039	3135.5464	3170.3368	3182.8312	3195.3837	3197.3296	3230.9067	3500.9587
C1C2C1C13NC21CC=C3	C1[C@H]2[C@@H]1[C@@]13N[C@@]21CC=C3	
InChI=1S/C8H9N/c1-2-7-5-4-6(5)8(7,3-1)9-7/h1-2,5-6,9H,3-4H2	InChI=1S/C8H9N/c1-2-7-5-4-6(5)8(7,3-1)9-7/h1-2,5-6,9H,3-4H2/t5-,6+,7-,8+/m1/s1
