19
gdb 78597	3.11038	1.40497	1.16312	0.5188	75.25	-0.2536	0.0614	0.315	1091.2427	0.158053	-422.948383	-422.939862	-422.938918	-422.980977	33.261	
C	 0.0283977674	 1.4915993798	-0.0691719514	-0.535015
C	 0.0047620521	-0.0150672499	-0.0497179239	 0.287037
C	 0.5068717173	-0.9416597828	-1.1798541558	 0.104842
O	 1.856417957	-0.8925231564	-1.5690657016	-0.44918
C	 0.0412707649	-1.9272913899	-0.0985470314	-0.100108
C	 0.5481009256	-1.0041641352	 1.06918272	-0.175201
C	-0.8275804107	-1.1016746372	 1.7648270894	 0.145595
O	-1.2623461844	-0.127247723	 2.6749014304	-0.444515
C	-1.1808225154	-1.0128521497	 0.266237108	-0.150232
H	 1.0314895317	 1.8431966033	-0.3357494942	 0.133757
H	-0.6679772169	 1.8842773959	-0.8182949209	 0.129322
H	-0.2260969563	 1.9463239604	 0.8946625867	 0.109181
H	-0.0750427896	-0.9275729647	-2.1075711245	 0.080745
H	 2.4019810308	-0.9666127359	-0.778069067	 0.281248
H	 0.0399613969	-3.0176393513	-0.0943037574	 0.075509
H	 1.542083179	-1.0029171037	 1.5223120873	 0.068157
H	-1.037560797	-2.0656082838	 2.2393235776	 0.084206
H	-1.1844558902	 0.738123486	 2.262489714	 0.281805
H	-2.1557306521	-1.0274985719	-0.2244885351	 0.072847
136.9214	170.5997	197.5832	211.0375	242.2303	299.5321	313.9595	378.0925	429.4259	527.1437	601.5177	648.3661	716.0391	794.74	846.3199	852.1736	867.3417	893.437	922.3878	950.3963	1003.3757	1048.0249	1076.6764	1111.8925	1113.7816	1126.6582	1139.804	1148.0081	1155.6748	1219.0343	1229.7094	1260.2165	1281.6919	1284.2495	1293.0552	1343.2433	1411.3958	1446.8381	1449.349	1478.0743	1496.1105	3024.2039	3060.2575	3063.1973	3084.6691	3085.9468	3093.7565	3098.8498	3115.8013	3800.8508	3833.5623
CC12C(O)C3C1C(O)C23	C[C@@]12[C@@H](O)[C@H]3[C@@H]1[C@@H](O)[C@@H]23	
InChI=1S/C7H10O2/c1-7-3-2(6(7)9)4(7)5(3)8/h2-6,8-9H,1H3	InChI=1S/C7H10O2/c1-7-3-2(6(7)9)4(7)5(3)8/h2-6,8-9H,1H3/t2-,3+,4-,5+,6-,7+/m0/s1
