20
gdb 89240	3.04818	1.6028	1.24726	1.8991	78.7	-0.2091	0.0748	0.2839	1063.3686	0.171021	-403.077632	-403.069744	-403.068799	-403.109541	31.667	
C	 0.044759291	 1.4835238814	-0.1343360015	-0.327078
N	-0.0416031984	 0.0450704866	 0.0491160509	-0.077764
C	-1.4121373807	-0.4774496156	 0.2790851696	-0.243346
C	-1.2016999796	-1.3570260152	 1.5091670688	 0.323911
C	-2.3339969327	-2.1862378065	 2.0584455837	-0.507734
C	-0.2320095755	-0.5896552657	 2.474347843	-0.006364
O	 0.4372936067	-1.8377966311	 2.8584314905	-0.319973
C	 0.2492153396	-1.9513013002	 1.4088739403	-0.004094
C	 0.6697064159	-0.4802757458	 1.1906565301	-0.00443
H	 1.092223105	 1.7761467001	-0.258652628	 0.121733
H	-0.4914710973	 1.7713457098	-1.0441293673	 0.12231
H	-0.3759964144	 2.0676842615	 0.7056410204	 0.09246
H	-2.1289429411	 0.3316027097	 0.4825447694	 0.093523
H	-1.7808702348	-1.0395421811	-0.5879294582	 0.104938
H	-2.7117101933	-2.8892811027	 1.3077632962	 0.117125
H	-1.9859771625	-2.7560877166	 2.924147696	 0.139637
H	-3.173207553	-1.5555318019	 2.3725956906	 0.116044
H	-0.4626105849	 0.1251608438	 3.2655189107	 0.084126
H	 0.5952016816	-2.857629994	 0.9106981552	 0.087988
H	 1.7158985783	-0.1930544466	 1.2836463696	 0.086988
123.0179	213.3543	239.8502	248.6547	279.6631	336.5129	368.1528	463.0937	504.3965	618.8312	665.9722	698.44	749.0715	795.6787	855.6144	892.0961	901.5631	940.1384	948.0327	992.9961	1032.3289	1037.8147	1091.6849	1115.4029	1146.4923	1159.7063	1167.3061	1180.3339	1190.9085	1219.6948	1233.0266	1247.6442	1268.8946	1312.4554	1343.5	1390.6061	1407.2174	1461.004	1489.338	1492.3661	1498.9294	1503.698	1514.9153	2928.466	2996.3382	3030.4283	3039.8069	3061.0893	3089.0494	3103.0855	3105.2786	3113.7402	3118.4096	3143.2463
CN1CC2(C)C3OC2C13	CN1C[C@]2(C)[C@H]3O[C@@H]2[C@@H]13	
InChI=1S/C7H11NO/c1-7-3-8(2)4-5(7)9-6(4)7/h4-6H,3H2,1-2H3	InChI=1S/C7H11NO/c1-7-3-8(2)4-5(7)9-6(4)7/h4-6H,3H2,1-2H3/t4-,5-,6+,7+
