15
gdb 129359	6.35106	0.80982	0.72149	3.2902	69.18	-0.2643	-0.0043	0.2599	1471.9425	0.114518	-450.141666	-450.133414	-450.13247	-450.17702	27.781	
N	-0.1981635983	 1.2873596525	 0.0110660143	-0.431459
C	-0.0970310241	 0.032422916	 0.0058654779	 0.137919
O	-1.217459709	-0.7245918611	 0.0114703057	-0.202293
C	-1.0320027316	-2.1377257297	 0.005070078	-0.192349
C	-2.3911627061	-2.75697469	 0.0129784081	 0.366
N	-2.6657769511	-4.0480617625	 0.0104276223	-0.328428
C	-4.0289774352	-4.0595938644	 0.0205294282	 0.023297
N	-4.6048432983	-2.8688568508	 0.0290508143	-0.209098
N	-3.5318835347	-2.0428566592	 0.0240066878	-0.217894
H	 0.7245979179	 1.7163744422	 0.005762711	 0.238055
H	 0.8293376211	-0.5570898946	-0.0030787957	 0.098311
H	-0.4794143211	-2.4573090096	-0.8879948245	 0.146588
H	-0.4662095483	-2.4636175796	 0.8875241474	 0.146587
H	-4.6093265941	-4.969856532	 0.02160857	 0.129027
H	-3.6374084071	-1.0409758371	 0.0283561126	 0.295737
24.4594	48.4611	110.463	111.7481	250.7306	307.3267	384.1096	608.0147	639.9417	699.4329	711.9417	757.0737	823.3754	911.2517	982.5627	1010.1766	1036.2346	1046.2234	1053.6522	1122.8924	1151.438	1210.2293	1236.1135	1273.9753	1294.1173	1311.0687	1363.9865	1419.7894	1446.731	1499.9014	1513.5739	1594.4882	1755.1025	3012.0148	3035.84	3052.58	3264.1484	3526.3121	3666.1607
N=COCC1=NC=NN1	[NH][CH]OCc1ncn[nH]1	
InChI=1S/C4H6N4O/c5-2-9-1-4-6-3-7-8-4/h2-3,5H,1H2,(H,6,7,8)	InChI=1S/C4H6N4O/c5-2-9-1-4-6-3-7-8-4/h2-3,5H,1H2,(H,6,7,8)
