22
gdb 119570	3.00875	1.01778	0.88595	2.5523	82.46	-0.2313	0.0706	0.3018	1429.0465	0.194226	-404.312948	-404.303539	-404.302595	-404.347448	35.735	
C	-0.1727062792	 1.5597387997	 0.0638548015	-0.383105
C	-0.1243867727	 0.0318922542	 0.1269160753	-0.159505
C	 0.8948925235	-0.4919294061	 1.1536517352	-0.343817
C	 0.9971723647	-1.9869598266	 1.1606949212	 0.351774
N	-0.0687538142	-2.8549050468	 1.7349761882	-0.396312
C	 1.3378711181	-2.9879087522	 2.2099114436	-0.122144
C	 2.0191850131	-3.9162404266	 1.2071489963	-0.259462
C	 1.6218842542	-2.8900674984	 0.0746246086	 0.10275
O	 0.7642226918	-3.3153879817	-0.9476124831	-0.439251
H	 0.8000539877	 1.9759500177	-0.2212774606	 0.11455
H	-0.9091054785	 1.9048720779	-0.6682339743	 0.114629
H	-0.4424424455	 1.9895825465	 1.0353883361	 0.111241
H	-1.1173938537	-0.361668006	 0.3774136197	 0.099257
H	 0.1205759994	-0.3793036652	-0.8592846968	 0.120007
H	 1.8838869827	-0.0677151705	 0.9319513989	 0.101657
H	 0.6281136891	-0.1348818307	 2.1588089901	 0.089827
H	-0.5748949723	-2.2941404433	 2.4199774319	 0.226119
H	 1.5765528995	-2.8324366388	 3.2552694396	 0.09321
H	 3.1005777853	-3.9951731662	 1.3413295874	 0.101399
H	 1.5821474495	-4.9133856151	 1.1113621662	 0.103791
H	 2.4972654426	-2.441785713	-0.4022286793	 0.085611
H	-0.0547450551	-3.5675506487	-0.4981712855	 0.287776
76.3246	90.1753	103.0064	179.9845	243.0516	278.261	309.8914	328.1115	400.4054	473.9929	531.1123	590.6074	677.8965	726.7991	744.2364	818.2782	868.5702	876.8224	901.0065	923.7147	945.9193	975.1439	1022.2353	1035.3776	1053.9181	1100.4318	1105.7682	1121.781	1133.0598	1164.0548	1199.7696	1224.5742	1256.87	1276.4396	1305.7623	1316.5841	1335.0872	1362.995	1387.2137	1415.367	1431.3721	1452.267	1476.371	1480.0315	1493.2533	1500.3649	1510.4023	3000.1465	3027.9148	3029.3837	3035.9052	3061.8157	3066.4316	3083.0226	3096.1128	3103.7763	3122.3081	3186.7835	3471.9788	3745.2481
CCCC12NC1CC2O	CCC[C@]12N[C@H]1C[C@H]2O	
InChI=1S/C7H13NO/c1-2-3-7-5(8-7)4-6(7)9/h5-6,8-9H,2-4H2,1H3	InChI=1S/C7H13NO/c1-2-3-7-5(8-7)4-6(7)9/h5-6,8-9H,2-4H2,1H3/t5-,6+,7-/m0/s1
