19
gdb 56297	7.03194	0.48262	0.45845	4.9188	77.46	-0.255	0.0245	0.2796	2244.7687	0.157961	-419.268131	-419.257465	-419.256521	-419.306261	36.133	
N	-0.0310438182	 1.3468927559	-0.1628994954	-0.523675
C	 0.0739368426	 0.0204846044	 0.1431761969	 0.411975
O	 1.1301803433	-0.4941302041	 0.4545797263	-0.354886
C	-1.2405237735	-0.7585066166	 0.0699773564	-0.326674
C	-1.011314466	-2.2670983208	-0.0294445844	-0.169363
C	-2.3135724444	-3.0678429483	 0.0359517844	-0.190638
C	-2.0560067578	-4.5851207228	-0.0598748756	-0.341889
C	-3.287069759	-5.3700203193	-0.0010106147	 0.256697
N	-4.2722884411	-5.9721652563	 0.0466000159	-0.305639
H	 0.7822508731	 1.9282474154	-0.0426977757	 0.262139
H	-0.9148477472	 1.786991729	-0.3491573523	 0.258242
H	-1.8139934521	-0.5242978214	 0.9778790758	 0.128834
H	-1.8431954342	-0.3955984741	-0.771887732	 0.110284
H	-0.4824822324	-2.491321115	-0.9639214963	 0.110127
H	-0.3339546016	-2.567965925	 0.7762020059	 0.128939
H	-2.8422976194	-2.8552934342	 0.9724452531	 0.119371
H	-2.9881094056	-2.7699972806	-0.7752392353	 0.117607
H	-1.5365504206	-4.8230157763	-0.9955938367	 0.153179
H	-1.3966329258	-4.90876159	 0.7539145037	 0.15537
22.2989	45.906	78.534	113.6253	122.6293	163.793	168.9982	291.3931	320.3224	400.0137	466.3488	513.1118	547.209	620.7825	654.9978	733.8667	790.6396	849.0255	912.1381	938.7113	1024.5719	1048.7552	1072.3642	1093.6848	1110.6877	1159.3853	1234.9284	1269.7295	1292.016	1323.2116	1325.2456	1353.112	1392.5324	1410.3526	1464.8757	1469.3296	1486.9148	1506.4112	1618.2956	1798.8053	2362.5398	3015.4705	3030.9181	3037.7591	3045.2378	3053.5267	3062.6785	3081.4988	3097.9933	3601.8518	3737.9761
NC(=O)CCCCC#N	NC(=O)CCCCC#N	
InChI=1S/C6H10N2O/c7-5-3-1-2-4-6(8)9/h1-4H2,(H2,8,9)	InChI=1S/C6H10N2O/c7-5-3-1-2-4-6(8)9/h1-4H2,(H2,8,9)
