19
gdb 38491	3.22711	1.69227	1.56482	1.7806	76.6	-0.2146	0.0572	0.2718	935.3865	0.16138	-385.821575	-385.814834	-385.81389	-385.852191	28.763	
C	-0.055013141	 1.4635026986	 0.0499155636	-0.2984
C	 1.3204195356	 0.8447555363	 0.0070191961	-0.027533
C	 2.0582924486	 0.6012537636	 1.3481773918	-0.325557
C	 1.2623726522	-0.4790062596	 2.0750264538	 0.149114
C	-0.1427722954	-0.2669398212	 2.6180529444	-0.388921
C	 0.0461151564	-0.8184838205	 1.2419550951	 0.399209
O	 0.2981755713	-2.2311114976	 1.2563399368	-0.326611
C	 1.5384493178	-1.9842821788	 1.9825485552	-0.130432
C	 0.0677345698	-0.0366517488	-0.0397157875	-0.120452
H	-0.4091441174	 1.9177429755	 0.9693235747	 0.112349
H	-0.3946937804	 1.9813636776	-0.8412651544	 0.114074
H	 1.9211707244	 1.0225492065	-0.879378596	 0.084679
H	 3.0736445494	 0.2422400555	 1.1499752768	 0.10696
H	 2.1622289867	 1.5242813915	 1.9295163054	 0.107185
H	-0.5133595863	-0.9276968494	 3.397123867	 0.117152
H	-0.4695144762	 0.7618568617	 2.7099020191	 0.121385
H	 2.4073276457	-2.2243600351	 1.3578522453	 0.104521
H	 1.5867404049	-2.5586116218	 2.9159953367	 0.103283
H	-0.2511360562	-0.5428734542	-0.9426767042	 0.097994
190.1605	224.665	317.4994	352.3607	420.0524	448.5172	549.4616	620.0335	664.0756	758.5399	780.4651	794.6065	807.4473	854.8259	869.267	918.5692	923.12	947.8702	975.6126	993.5059	1000.238	1032.2468	1056.2051	1068.1115	1081.8682	1100.5606	1143.381	1152.3333	1177.6929	1197.9952	1233.0718	1269.2633	1297.4161	1317.928	1354.6191	1373.9833	1383.2052	1472.5329	1482.4605	1499.5022	1514.3999	3012.1224	3039.7272	3062.1281	3077.1634	3121.9503	3129.0682	3156.1905	3187.479	3207.1359	3224.7961
C1C2CC34CC3(OC4)C12	C1[C@H]2C[C@@]34C[C@@]3(OC4)[C@@H]12	
InChI=1S/C8H10O/c1-5-2-7-3-8(7,6(1)5)9-4-7/h5-6H,1-4H2	InChI=1S/C8H10O/c1-5-2-7-3-8(7,6(1)5)9-4-7/h5-6H,1-4H2/t5-,6-,7-,8+/m0/s1
