15
gdb 43290	2.45459	1.60508	1.41079	3.4352	76.99	-0.2427	-0.0587	0.184	979.176	0.112494	-383.469878	-383.462441	-383.461496	-383.501825	28.897	
O	 0.0288596011	-0.0176160975	-0.1205483814	-0.329191
C	-0.0194723219	 1.1870897547	-0.0518969515	 0.398026
C	-1.2352713526	 2.0479526649	-0.0142912026	-0.183831
C	-0.8849392423	 3.341035501	-0.0218438395	-0.067004
C	 0.5981827871	 3.5195553449	-0.0254646141	-0.112082
C	 1.3366043017	 3.0148486933	 1.2208781196	-0.217479
C	 0.6902677235	 2.7429018974	 2.4705761231	 0.343189
C	 0.1847217066	 2.5243178465	 3.5392626936	-0.442026
C	 1.1709256406	 2.1330274292	-0.024394642	-0.19245
H	-2.2345815032	 1.6381263317	 0.0428619662	 0.121528
H	-1.5659922706	 4.1826804281	 0.0249246683	 0.122272
H	 1.0480356189	 4.3404156711	-0.571156155	 0.109508
H	 2.3429449809	 3.4144885281	 1.323765272	 0.129333
H	-0.2675544725	 2.3224895372	 4.4785806189	 0.20184
H	 2.0685171528	 1.8495434292	-0.5582720356	 0.118367
90.2762	135.72	217.6971	288.5853	371.2076	452.6256	523.4095	573.673	609.0787	634.6006	662.1042	737.4627	759.5905	773.3617	790.7313	851.6752	865.6816	921.9483	980.3777	982.0713	1014.7804	1041.4968	1096.7533	1113.5088	1170.6016	1178.5372	1301.0818	1327.808	1362.5318	1389.3902	1634.1215	1817.0415	2238.7517	3135.4663	3183.5654	3203.2344	3207.25	3237.7804	3503.7102
O=C1C=CC2C(C#C)C12	O=C1C=C[C@H]2[C@@H](C#C)[C@@H]12	
InChI=1S/C8H6O/c1-2-5-6-3-4-7(9)8(5)6/h1,3-6,8H	InChI=1S/C8H6O/c1-2-5-6-3-4-7(9)8(5)6/h1,3-6,8H/t5-,6+,8-/m1/s1
