23
gdb 118955	2.97431	0.87537	0.84025	2.259	81.74	-0.2411	0.0747	0.3158	1518.5362	0.203643	-425.407726	-425.39714	-425.396196	-425.443586	38.605	
C	-0.5109506507	 1.3506978405	-0.0149969509	-0.413565
C	 0.2101054745	 0.0190985755	-0.0318138909	 0.125096
O	 1.4941255348	 0.0844944169	-0.6955845699	-0.295775
C	 2.1035627556	-0.7330494787	 0.3201882805	-0.109667
C	 0.868389582	-0.5923043465	 1.2489497064	 0.256478
C	 1.1026866815	 0.4119123216	 2.3791284531	-0.457507
C	 0.2215123306	-1.89167657	 1.7330088034	-0.246603
C	 1.0360504001	-2.6742910596	 2.7589251502	-0.084884
O	 0.3710248023	-3.9107670156	 2.9723355075	-0.417863
H	 0.080560296	 2.1305237721	 0.4701641254	 0.12013
H	-0.7116070098	 1.6693305866	-1.0430468627	 0.128549
H	-1.4721222418	 1.261715533	 0.5029737985	 0.116092
H	-0.4293068311	-0.729322567	-0.5267519396	 0.064231
H	 2.288521708	-1.75745221	-0.0346316661	 0.090637
H	 3.0472009186	-0.3049768988	 0.6792740055	 0.096209
H	 1.5457283267	 1.3379068456	 2.0018067475	 0.125474
H	 0.1678773461	 0.666782697	 2.8906614709	 0.115321
H	 1.7916278915	 0.0072121187	 3.1276142221	 0.116056
H	-0.766768423	-1.6790169837	 2.1610080002	 0.102738
H	 0.0524508782	-2.5552474195	 0.8764870719	 0.107896
H	 2.0594973787	-2.834094001	 2.3792010187	 0.086695
H	 1.1226176203	-2.1079360749	 3.6982093081	 0.088668
H	 0.8518594406	-4.398706872	 3.6471113999	 0.285593
59.9868	92.0256	99.5732	142.7898	204.31	228.2202	266.7645	274.0742	313.5391	332.3332	348.0891	403.5741	446.7372	524.2943	696.9022	771.7529	799.192	876.2416	890.7969	937.6587	983.965	1000.5354	1013.9371	1028.604	1073.1612	1073.6262	1100.6495	1122.3701	1167.2721	1180.1951	1208.4211	1248.7052	1257.8363	1276.3652	1301.2272	1331.8226	1352.534	1365.6535	1389.7891	1409.9868	1417.7039	1463.4636	1477.6421	1486.2089	1493.227	1499.6084	1509.6835	1526.1258	1528.499	2957.0028	2967.1456	2992.1134	2997.5866	3023.9249	3032.7103	3039.4087	3047.7932	3067.4614	3096.7726	3104.0743	3107.6802	3127.374	3830.123
CC1OCC1(C)CCO	C[C@H]1OC[C@]1(C)CCO	
InChI=1S/C7H14O2/c1-6-7(2,3-4-8)5-9-6/h6,8H,3-5H2,1-2H3	InChI=1S/C7H14O2/c1-6-7(2,3-4-8)5-9-6/h6,8H,3-5H2,1-2H3/t6-,7+/m1/s1
