19
gdb 69858	2.64778	1.64751	1.18278	0.7976	86.91	-0.2025	0.0382	0.2407	1085.4153	0.15756	-348.65833	-348.649874	-348.64893	-348.69074	33.966	
C	-0.03655102	 1.5269924372	 0.0682263915	-0.504803
C	-0.0044552	 0.0282970188	 0.0215636238	 0.314335
C	-0.9137423135	-0.8597236365	 0.825277818	-0.357257
C	 0.5807936342	-0.9682044927	 1.0081318602	-0.103406
C	 1.3017337251	-1.7156765012	-0.1384868714	-0.102882
C	 0.4030703888	-2.2131055972	-1.223969356	-0.354151
C	 0.7087156301	-0.7270497187	-1.1631396889	 0.112175
C	 1.3703848614	-0.043008704	-2.2162652849	 0.206706
C	 1.9237848589	 0.5552563495	-3.1041876532	-0.426169
H	 0.941804033	 1.9528858715	-0.176928267	 0.129789
H	-0.7599055253	 1.9319474169	-0.649733436	 0.124134
H	-0.322275092	 1.8760868723	 1.0655803263	 0.113508
H	-1.4147396023	-0.3403238623	 1.6376401923	 0.112412
H	-1.5151001384	-1.6536817205	 0.3971017389	 0.111442
H	 1.0599083863	-0.7661020002	 1.9576027192	 0.090672
H	 2.3396283857	-2.0146353493	-0.0742422691	 0.10526
H	 0.9176020849	-2.7171742032	-2.0357675503	 0.128072
H	-0.5912227901	-2.6012617862	-1.0357290693	 0.118034
H	 2.4134193133	 1.0765584657	-3.8884268241	 0.182129
117.0599	136.9475	201.754	234.764	299.5282	363.4758	439.0749	462.0884	496.5567	515.542	533.0478	584.4257	615.7765	655.3511	762.9896	779.0334	845.8653	868.2662	895.6433	917.004	958.1418	963.4132	991.039	1013.8745	1043.8866	1060.6592	1088.0258	1101.9504	1120.6114	1166.6487	1248.317	1262.106	1288.6922	1337.3755	1388.1224	1420.5719	1478.9547	1480.138	1499.9164	1513.5434	2221.5452	3024.6566	3085.4181	3103.9628	3122.2729	3139.4534	3187.4204	3200.4042	3202.937	3218.2627	3504.1329
CC12CC1C1CC21C#C	C[C@]12C[C@H]1[C@H]1C[C@@]21C#C	
InChI=1S/C9H10/c1-3-9-5-7(9)6-4-8(6,9)2/h1,6-7H,4-5H2,2H3	InChI=1S/C9H10/c1-3-9-5-7(9)6-4-8(6,9)2/h1,6-7H,4-5H2,2H3/t6-,7+,8-,9+/m0/s1
