20
gdb 119640	4.48523	1.03068	0.98621	2.0678	78.68	-0.2237	0.0764	0.3001	1288.9305	0.170742	-403.072888	-403.064582	-403.063637	-403.106412	31.74	
C	 0.0262156146	 1.5271268381	-0.0464790302	-0.385915
C	 0.0248807972	 0.0091920447	-0.013130976	-0.07117
O	 0.6914351902	-0.462518882	-1.17890928	-0.305744
C	 0.744789852	-1.8334098824	-1.2844639565	 0.407305
C	 1.5820649636	-2.7210057231	-0.306819757	-0.310479
C	 1.718308489	-3.6638687692	-1.4986071961	-0.030081
C	 1.4267227647	-2.5969384392	-2.4817074296	-0.126906
N	 0.4281559674	-3.6843626532	-2.2862050524	-0.148881
C	-0.4813648258	-2.7300832428	-1.5671836902	-0.208621
H	 1.0507542533	 1.9092771228	-0.0627132445	 0.128879
H	-0.4895702782	 1.8912785992	-0.9393531805	 0.129322
H	-0.4808181067	 1.927540439	 0.8363993386	 0.11686
H	 0.5371731097	-0.3608623712	 0.8881032591	 0.098267
H	-1.005682194	-0.3775915523	 0.0133446117	 0.097775
H	 2.5395087048	-2.2482319365	-0.0733738883	 0.110955
H	 1.1025081892	-3.0859776632	 0.6077758723	 0.093174
H	 2.3460400943	-4.5390284321	-1.6017486164	 0.100521
H	 1.8472740342	-2.3025607053	-3.4335422902	 0.100302
H	-1.0390421821	-3.1570864158	-0.7255588226	 0.093209
H	-1.1674958173	-2.2929432857	-2.297154861	 0.111228
64.1514	69.0645	143.4721	242.7866	337.1215	347.7822	363.1969	459.8023	466.7701	677.1287	716.7369	750.8166	795.1844	820.8666	842.8599	909.0483	919.6373	952.6258	961.4354	974.3458	994.0119	1019.4609	1074.6007	1091.9822	1112.0483	1143.0955	1149.42	1161.9062	1172.9553	1187.2397	1209.7171	1248.4903	1263.4664	1298.994	1325.8214	1350.9542	1402.6164	1433.1594	1483.3624	1488.8026	1499.6102	1511.1015	1527.1251	2978.2221	3007.8626	3032.4536	3042.5564	3046.088	3105.7253	3109.6963	3120.8408	3123.7963	3199.8788	3215.1358
CCOC12CC3C1N3C2	CCO[C@]12C[C@@H]3[C@H]1N3C2	
InChI=1S/C7H11NO/c1-2-9-7-3-5-6(7)8(5)4-7/h5-6H,2-4H2,1H3	InChI=1S/C7H11NO/c1-2-9-7-3-5-6(7)8(5)4-7/h5-6H,2-4H2,1H3/t5-,6-,7+,8?/m1/s1
