18
gdb 33502	2.66296	1.26009	0.94539	2.7166	78.52	-0.2361	0.0249	0.261	1258.1648	0.145153	-401.847805	-401.83884	-401.837895	-401.881995	33.252	
C	-0.3276299641	-1.1629532899	 0.3921532586	-0.447622
C	-0.2184190525	 0.0248670192	 0.244414467	 0.31779
C	-0.1077657711	 1.4573082394	 0.086743994	 0.221216
C	-1.2693178556	 2.1660448974	-0.590227845	-0.23474
N	-1.4848448268	 1.6759786239	-1.9428237131	-0.055595
C	-2.4705097257	 0.6114284365	-2.1071679563	-0.209981
C	-2.7766703232	 2.001714361	-2.5392338985	-0.224299
C	 0.7304148726	 2.2105523723	 1.044826708	-0.21544
O	 1.1984802492	 1.9411603068	-0.2697056716	-0.254881
H	-0.4138603879	-2.2146061067	 0.513586134	 0.200357
H	-2.1674173352	 2.0631154332	 0.0473061648	 0.08867
H	-1.0181489772	 3.2302208403	-0.648431316	 0.113371
H	-2.2174338567	-0.1531791805	-2.8350934349	 0.121577
H	-2.9756813409	 0.2420648351	-1.2168438464	 0.11392
H	-3.4908646436	 2.5624403152	-1.937335176	 0.106926
H	-2.7531807349	 2.2768436518	-3.5896060262	 0.119593
H	 0.4846254772	 3.2509561608	 1.2569414175	 0.115051
H	 1.2308306063	 1.6711687044	 1.8465846701	 0.124085
57.461	89.4057	137.0977	181.5933	228.9032	290.2002	349.6516	419.2714	420.9136	553.8312	566.9944	618.2959	665.0688	729.2393	769.2865	832.2831	838.381	902.0551	916.8903	972.7992	1010.7437	1032.2029	1049.9583	1113.3918	1117.7948	1133.132	1165.365	1170.9691	1184.3136	1243.8604	1294.3773	1325.4892	1351.5848	1405.8865	1470.5422	1493.3854	1520.2732	1521.5016	2238.373	2928.3973	3071.5246	3081.4263	3093.2057	3104.8114	3175.2042	3179.7724	3196.4774	3501.0268
C#CC1(CN2CC2)CO1	C#C[C@@]1(CN2CC2)CO1	
InChI=1S/C7H9NO/c1-2-7(6-9-7)5-8-3-4-8/h1H,3-6H2	InChI=1S/C7H9NO/c1-2-7(6-9-7)5-8-3-4-8/h1H,3-6H2/t7-/m1/s1
