21
gdb 78533	2.26109	1.5496	1.21799	1.1317	82.82	-0.2012	0.0802	0.2815	1148.1167	0.180635	-387.012422	-387.003207	-387.002263	-387.045677	36.151	
C	-0.1758872979	 1.6005636932	-0.0512656658	-0.437012
C	 0.1580964655	 0.1095742746	 0.0276646531	-0.066304
C	 1.437903063	-0.648047933	-0.2728919514	-0.213295
C	 2.7607279151	-0.1072159372	 0.3452898629	 0.400141
O	 3.9735049024	-0.680664457	 0.0028345285	-0.456793
C	 2.6484158568	 1.1967925126	 1.0728087543	-0.374638
C	 2.1320211413	-0.0868469092	 1.7130104158	-0.175124
C	 0.8160054094	-0.6883568793	 1.1251514328	 0.327917
C	 0.1527816569	-1.8337396721	 1.8362266341	-0.488187
H	 0.4316363041	 2.125456161	-0.7948547914	 0.124044
H	-1.222588249	 1.7247955848	-0.3460530005	 0.110164
H	-0.0543786542	 2.1075448006	 0.9087943074	 0.131372
H	-0.6631939054	-0.487067439	-0.3721309928	 0.0859
H	 1.4676730194	-1.4484189452	-1.0038449614	 0.084556
H	 4.3134206784	-0.2186012593	-0.7724853771	 0.282555
H	 3.5963331843	 1.5031711449	 1.5084489467	 0.112046
H	 2.0219616239	 2.0194458183	 0.7609633949	 0.108944
H	 2.5455767155	-0.4402533054	 2.6489128365	 0.093244
H	-0.3627518036	-1.4955507939	 2.7445038854	 0.116084
H	-0.5890256481	-2.3201927276	 1.1944149747	 0.114205
H	 0.8846918522	-2.5926756217	 2.1376339735	 0.120181
89.6613	175.4847	198.8447	214.7852	256.1065	275.7301	289.656	343.4323	368.8919	425.3786	494.3271	564.9956	588.4879	659.2541	712.9925	809.8166	839.6977	852.6147	905.0588	925.5469	938.6242	959.8093	1001.1103	1010.5041	1060.5621	1071.9276	1083.6068	1105.6801	1111.526	1152.4452	1170.8647	1200.3707	1249.9851	1284.5991	1309.6829	1349.8725	1400.8813	1413.8855	1418.2892	1466.7572	1482.8649	1495.8717	1501.1537	1503.3584	1514.9169	3012.983	3037.9863	3068.5529	3084.4038	3094.4825	3103.4711	3115.9975	3135.1402	3172.4139	3194.5397	3244.9039	3774.8285
CC1C2C3(O)CC3C12C	C[C@H]1[C@H]2[C@@]3(O)C[C@H]3[C@@]12C	
InChI=1S/C8H12O/c1-4-6-7(4,2)5-3-8(5,6)9/h4-6,9H,3H2,1-2H3	InChI=1S/C8H12O/c1-4-6-7(4,2)5-3-8(5,6)9/h4-6,9H,3H2,1-2H3/t4-,5-,6+,7+,8+/m0/s1
