15
gdb 132278	2.03375	1.76734	0.95117	3.2031	74.01	-0.2127	-0.0394	0.1733	1153.347	0.113035	-458.145007	-458.137111	-458.136167	-458.177781	29.466	
C	-0.0197083542	 1.4972018482	-0.0090290885	-0.474495
C	 0.0018082829	-0.0077526764	-0.0061606903	 0.336901
N	-0.0195635675	-0.6136813795	-1.1620958916	-0.365664
C	-0.0012636966	-1.9998157674	-1.2239665904	 0.416855
N	-0.0187276859	-2.723123279	-2.2748182632	-0.568107
N	 0.0408058255	-2.6854503664	 0.0170562183	-0.386707
C	 0.0619538733	-2.037230244	 1.191253951	 0.437567
F	 0.1006969982	-2.8219249745	 2.2507682827	-0.046783
C	 0.0443632001	-0.6846602758	 1.2597197673	-0.398016
H	 0.8691306185	 1.8942553179	 0.4942837159	 0.138537
H	-0.0521722005	 1.8674598954	-1.033436553	 0.147965
H	-0.8914734351	 1.8692107415	 0.5410897431	 0.138506
H	-0.0488912615	-2.1098333361	-3.0873559476	 0.224768
H	 0.0543478433	-3.6949511703	-0.0149948534	 0.28089
H	 0.0615288195	-0.1676186037	 2.2065345898	 0.117782
94.5247	121.4297	177.9271	237.6607	297.9485	348.2336	515.1658	519.6472	547.7966	557.2921	616.1021	635.1447	689.4717	762.0847	772.3311	847.9813	928.4704	977.7116	993.2592	1053.7032	1084.2454	1104.0787	1189.3048	1270.5403	1315.8456	1386.625	1416.8946	1466.5078	1479.8315	1519.4843	1591.4918	1696.0699	1728.7639	3036.5378	3091.2032	3157.9296	3250.759	3515.4516	3621.2478
CC1=NC(=N)NC(F)=C1	CC1=C[C@@H](NC(=N1)[NH])F	
InChI=1S/C5H6FN3/c1-3-2-4(6)9-5(7)8-3/h2H,1H3,(H2,7,8,9)	InChI=1S/C5H7FN3/c1-3-2-4(6)9-5(7)8-3/h2,4,7H,1H3,(H,8,9)/t4-/m1/s1
