19
gdb 114430	3.82456	1.33117	1.19531	1.8913	73.97	-0.2174	0.0702	0.2876	1098.7107	0.159823	-422.979424	-422.971893	-422.970949	-423.011499	29.801	
C	 0.0431111813	 1.526199653	 0.0784423583	-0.383849
C	-0.0363939414	 0.0005545818	-0.022102301	-0.188527
C	 0.67127211	-0.5513484182	-1.2521391246	 0.147207
O	 2.0673249322	-0.1786308552	-1.2246540233	-0.279381
C	 2.8101089366	-1.2779678882	-1.6846925317	 0.076247
C	 2.649805172	-2.5963113746	-0.9429546565	 0.060882
O	 1.4549961759	-2.5563799705	-0.1639600615	-0.295282
C	 0.7294097617	-2.0746796901	-1.3429700894	 0.036067
C	 1.9424975781	-2.3621311708	-2.2567642426	-0.209921
H	 1.0846344436	 1.8542551065	 0.1246070584	 0.137048
H	-0.4227926838	 2.0077576622	-0.7889049264	 0.108593
H	-0.4701042238	 1.8860275207	 0.9752147337	 0.110001
H	 0.4099895027	-0.4683245057	 0.8597093324	 0.122632
H	-1.0862886508	-0.318347457	-0.0640941863	 0.089052
H	 0.2109815504	-0.1463105985	-2.1707024902	 0.065617
H	 3.7649468116	-1.0165998151	-2.1251047743	 0.108144
H	 3.4415683433	-3.270749695	-0.6371915789	 0.106567
H	-0.2168436507	-2.5961269682	-1.4914857923	 0.086858
H	 1.9741275409	-2.8287122869	-3.2314108536	 0.102047
97.3692	142.6522	190.6818	244.103	336.9436	421.6652	497.31	549.2043	692.4062	735.0194	767.2589	785.3379	810.3788	831.7891	851.5238	899.6717	914.2285	951.6005	997.062	1013.3677	1024.0634	1040.2855	1058.5293	1079.428	1101.3018	1111.1627	1131.3946	1156.9996	1213.3354	1239.817	1264.3305	1288.5628	1305.3175	1324.1793	1361.9382	1400.2994	1405.7594	1410.5805	1481.7606	1497.8364	1509.5479	2949.7067	3026.4201	3035.437	3086.7092	3105.0086	3113.0065	3124.509	3178.125	3190.9374	3208.4794
CCC1OC2C3OC1C23	CC[C@H]1O[C@H]2[C@H]3O[C@@H]1[C@@H]23	
InChI=1S/C7H10O2/c1-2-3-5-4-6(8-3)7(4)9-5/h3-7H,2H2,1H3	InChI=1S/C7H10O2/c1-2-3-5-4-6(8-3)7(4)9-5/h3-7H,2H2,1H3/t3-,4+,5+,6-,7+/m1/s1
