20
gdb 115536	2.51609	1.12117	1.01432	3.7472	80.2	-0.2469	0.0256	0.2726	1303.3193	0.171423	-399.315147	-399.305517	-399.304572	-399.349632	35.63	
C	 0.0180619532	 1.6079481073	-0.1397723444	-0.391786
C	-0.3288029976	 0.1430350702	-0.4276784884	-0.176149
C	 0.8038212252	-0.5758266712	-1.138964177	 0.035292
N	 2.0539256568	-0.7887165063	-0.3654086437	-0.33455
C	 2.2760409202	-2.0907683266	-1.0292228157	-0.20647
C	 0.740910787	-2.1342493556	-1.3490732714	 0.111458
N	-0.1153840711	-2.8005513805	-0.3769935003	-0.548409
C	 0.39147812	-2.5808773513	-2.6946877662	 0.266903
N	 0.1443758988	-2.9332846707	-3.7673760809	-0.340394
H	 0.8992678054	 1.6814494669	 0.5061862916	 0.122575
H	 0.228814335	 2.1583064264	-1.0636890811	 0.115074
H	-0.8082372531	 2.1139740191	 0.3676005371	 0.120079
H	-0.5634168532	-0.3734660503	 0.5075403728	 0.101491
H	-1.2259528417	 0.0812491203	-1.0550808915	 0.112187
H	 0.9883305144	-0.0987341503	-2.1140506802	 0.081164
H	 2.781995523	-0.098841178	-0.5136580738	 0.226131
H	 2.8880036944	-2.0480731482	-1.9400803927	 0.110857
H	 2.6481561778	-2.8880756427	-0.3770160489	 0.105904
H	-0.0346224325	-3.8084156169	-0.4758270033	 0.24091
H	 0.2057982983	-2.5632928617	 0.5572062781	 0.247735
73.617	103.1749	155.45	167.8109	206.9178	236.8827	287.5982	310.0869	369.5633	405.1967	494.1886	542.6799	592.6591	605.3743	736.8147	760.4604	862.2678	871.6621	934.4591	957.4704	979.1042	991.8719	1015.1913	1048.5834	1093.4168	1106.9502	1146.5166	1172.017	1214.677	1267.2418	1283.0827	1298.6218	1352.9832	1368.1872	1370.9868	1406.2622	1417.4478	1474.014	1500.4122	1509.0138	1512.3782	1649.1431	2358.2788	2978.8796	3009.3759	3032.0108	3043.6928	3070.219	3083.5488	3106.3011	3109.5521	3491.9648	3533.5299	3575.9956
CCC1NCC1(N)C#N	CC[C@H]1NC[C@]1(N)C#N	
InChI=1S/C6H11N3/c1-2-5-6(8,3-7)4-9-5/h5,9H,2,4,8H2,1H3	InChI=1S/C6H11N3/c1-2-5-6(8,3-7)4-9-5/h5,9H,2,4,8H2,1H3/t5-,6-/m1/s1
