13
gdb 43437	3.19162	1.2655	0.9113	2.0072	78.96	-0.2546	-0.1061	0.1485	1171.4034	0.087676	-419.448366	-419.440541	-419.439597	-419.481139	28.713	
O	-0.0471027143	-0.0370376366	 0.0029904265	-0.311167
C	-0.0492245991	 1.1708662291	 0.0105040591	 0.395736
C	-1.2733223826	 2.0841460497	 0.0320515747	-0.445588
C	-0.691875976	 3.4928954334	 0.0326501813	 0.312355
O	-1.2922150699	 4.5341085883	 0.0462649715	-0.287785
C	 0.8181198922	 3.3502349338	 0.0101081369	 0.043827
C	 1.153426271	 2.0398349348	-0.0019955	-0.288085
C	 1.6717711506	 4.4701365716	 0.0041028103	 0.259993
C	 2.3748753182	 5.4478259724	-0.0006104334	-0.366051
H	-1.9119485519	 1.9193395951	-0.8412638021	 0.166438
H	-1.8886673638	 1.9089850136	 0.9199291966	 0.166325
H	 2.1561613215	 1.6320000705	-0.0186650799	 0.141281
H	 2.9962297243	 6.3098274543	-0.0049460616	 0.212722
86.9316	118.7684	130.631	270.016	361.6453	422.6186	424.7526	514.9809	568.6984	569.2762	639.4561	642.8589	659.1081	687.0689	753.5843	848.9758	914.7447	965.5877	1024.8696	1136.2966	1171.5516	1229.0424	1239.4727	1279.0922	1417.218	1626.7134	1806.6066	1847.2894	2226.643	3067.628	3109.721	3225.7304	3497.7462
O=C1CC(=O)C(=C1)C#C	O=C1CC(=O)C(=C1)C#C	
InChI=1S/C7H4O2/c1-2-5-3-6(8)4-7(5)9/h1,3H,4H2	InChI=1S/C7H4O2/c1-2-5-3-6(8)4-7(5)9/h1,3H,4H2
