19
gdb 61413	2.68497	1.10168	0.8521	7.8331	73.46	-0.2378	0.0069	0.2447	1359.8484	0.158547	-456.405998	-456.396248	-456.395304	-456.44105	35.77	
C	 0.8377612791	 1.6599190692	-0.5016452349	-0.391351
C	 0.1033009913	 0.4386757867	 0.0586913551	-0.136385
C	-1.4041762897	 0.7456459865	 0.231198427	-0.275528
C	-2.1514971788	-0.0926057333	 1.2519070527	 0.394814
N	-3.3096269465	 0.4736196863	 1.7096773103	-0.527828
N	-1.6727112092	-1.2185557418	 1.6391881142	-0.539408
H	-2.2590439932	-1.7020881107	 2.3170466575	 0.214189
H	-0.5935517375	-1.8179111835	 0.4750261885	 0.328415
C	 0.3558350496	-0.7896815053	-0.842530926	 0.398252
O	 0.931777267	-0.7024617976	-1.8994119105	-0.337826
O	-0.0902792784	-1.9549853174	-0.3785731507	-0.384262
H	 1.89868466	 1.4414736038	-0.6354218862	 0.134948
H	 0.4416014246	 1.9391625129	-1.4817691234	 0.128798
H	 0.7371987426	 2.5144276184	 0.1758429177	 0.097942
H	 0.5027377122	 0.197321426	 1.051123327	 0.110148
H	-1.5110464507	 1.7963780807	 0.5264836661	 0.118597
H	-1.9222499457	 0.6522227337	-0.7331321098	 0.142636
H	-3.6919446166	 1.2727086368	 1.2324346415	 0.265214
H	-3.9701500599	-0.0951737716	 2.2144999239	 0.258634
44.6917	91.8627	129.319	207.9758	238.1325	253.3165	306.7362	313.1726	332.3128	424.215	451.9652	508.2871	544.1768	592.0626	643.0594	750.7413	815.6519	838.3583	867.322	924.6004	955.5599	965.8068	1069.1619	1086.1509	1111.4347	1143.6714	1162.714	1216.6982	1250.6232	1300.6293	1345.949	1379.3879	1413.2507	1448.6001	1464.903	1487.189	1495.1729	1517.3694	1645.599	1713.4688	1840.7065	3020.58	3040.9901	3041.7063	3059.3251	3089.0514	3113.3727	3136.1878	3491.6597	3595.9246	3713.3797
CC(CC(N)=[NH2+])C([O-])=O	C[C@@H](CC(=N)N)C(=O)O	
InChI=1S/C5H10N2O2/c1-3(5(8)9)2-4(6)7/h3H,2H2,1H3,(H3,6,7)(H,8,9)	InChI=1S/C5H10N2O2/c1-3(5(8)9)2-4(6)7/h3H,2H2,1H3,(H3,6,7)(H,8,9)/t3-/m0/s1
