16
gdb 14869	2.69267	1.73438	1.14688	2.4892	60.74	-0.2504	-0.0386	0.2118	1007.9426	0.128466	-420.848561	-420.840095	-420.839151	-420.882639	28.935	
O	 0.2051559529	 1.3098817686	-0.354788218	-0.417762
C	 0.10450098	-0.103965817	-0.361097186	-0.091438
C	-1.292441325	-0.5697429806	 0.0323984227	-0.070127
C	-2.3921815264	-0.4606297979	-1.0498933244	-0.085328
O	-2.5341835304	-1.8956837632	-1.1270715508	-0.286368
C	-1.5950683208	-2.0949283199	-0.0566484543	 0.031017
C	-0.4659586861	-3.0266861142	-0.4497761153	 0.122915
O	 0.4988324688	-3.2317629376	 0.2412690757	-0.243197
H	-0.3312028071	 1.6533342625	-1.0765211694	 0.285277
H	 0.3845363132	-0.5232429064	-1.3413168854	 0.093002
H	 0.8369219303	-0.469810855	 0.3638495021	 0.141098
H	-1.5601421697	-0.1213722269	 0.9905602602	 0.100048
H	-3.3226515119	 0.0226616618	-0.7308484096	 0.112907
H	-2.0804866173	-0.0326079429	-2.0130284089	 0.098102
H	-2.0744861867	-2.5019660747	 0.8453519326	 0.113111
H	-0.6084066737	-3.5089247667	-1.4433164015	 0.096743
58.3865	72.6528	109.9417	149.8111	234.0096	286.7478	335.7299	412.8122	441.4925	560.8076	774.99	840.5302	897.0797	914.2541	958.1124	1008.4795	1052.3167	1063.6163	1076.5961	1113.2382	1140.2673	1167.9032	1216.3297	1227.5803	1263.653	1323.7124	1337.854	1359.0531	1392.4963	1396.122	1418.7263	1499.244	1523.9107	1824.7789	2886.1545	2973.8974	2999.5465	3006.4586	3056.1101	3093.3092	3105.4186	3815.7889
OCC1COC1C=O	OC[C@H]1CO[C@H]1C=O	
InChI=1S/C5H8O3/c6-1-4-3-8-5(4)2-7/h2,4-6H,1,3H2	InChI=1S/C5H8O3/c6-1-4-3-8-5(4)2-7/h2,4-6H,1,3H2/t4-,5-/m0/s1
