21
gdb 101789	4.48433	0.64714	0.58546	2.6359	76.92	-0.2403	0.0607	0.301	1907.1582	0.181627	-457.59047	-457.579664	-457.578719	-457.627235	38.892	
C	-0.0321914923	 1.5580928905	 0.0147462673	-0.382335
C	 0.033106841	 0.0289361645	 0.0118737712	-0.191852
C	 0.7129897679	-0.5425947565	-1.2341143606	 0.109404
O	 2.055621805	-0.0619175032	-1.3799420621	-0.437007
C	 0.6966210155	-2.0717648953	-1.2572179473	-0.143156
N	 1.3836068711	-2.5433609315	-2.4427683026	-0.346825
C	 1.2829717322	-3.8588569227	-2.8268576723	 0.451707
N	 2.1577269811	-4.2160415604	-3.8506751128	-0.566699
O	 0.5141087782	-4.6505048071	-2.311929265	-0.396617
H	 0.9671523088	 1.9894913897	-0.0877874796	 0.125892
H	-0.6382988913	 1.9262796451	-0.8200424744	 0.118073
H	-0.4761098261	 1.9328664888	 0.9414760041	 0.113557
H	 0.5737289395	-0.3265795514	 0.9015704035	 0.090224
H	-0.9765768832	-0.3938124435	 0.0837404637	 0.107
H	 0.2012836081	-0.1759094232	-2.132544619	 0.094944
H	 2.5277346839	-0.2720119608	-0.5651059661	 0.280809
H	 1.1623669865	-2.458570765	-0.3348181873	 0.092253
H	-0.3277916097	-2.4521552397	-1.2734809248	 0.134313
H	 2.2157442348	-2.0226705271	-2.6775011538	 0.242759
H	 2.4010882736	-3.5004078001	-4.5198029473	 0.246048
H	 1.9047222954	-5.096371531	-4.2739369146	 0.257508
37.5931	74.468	98.0749	114.4081	189.0149	217.2982	239.1873	280.5866	334.747	357.8114	403.0077	454.7603	499.3831	524.5801	555.6139	591.8507	678.3505	779.147	781.0179	849.5649	930.4435	971.8358	1006.4456	1033.4701	1086.8003	1092.9055	1111.8892	1152.9679	1181.0591	1221.043	1263.0405	1282.0156	1318.1058	1354.1334	1382.4584	1407.7785	1410.3721	1425.4399	1482.2365	1496.504	1507.7974	1510.7878	1526.8646	1625.9778	1800.2003	2961.8469	3004.1829	3039.6654	3042.8386	3057.2001	3100.9964	3105.9783	3121.2391	3569.5323	3611.5819	3683.3876	3783.537
CCC(O)CNC(N)=O	CC[C@@H](O)CNC(=O)N	
InChI=1S/C5H12N2O2/c1-2-4(8)3-7-5(6)9/h4,8H,2-3H2,1H3,(H3,6,7,9)	InChI=1S/C5H12N2O2/c1-2-4(8)3-7-5(6)9/h4,8H,2-3H2,1H3,(H3,6,7,9)/t4-/m1/s1
