17
gdb 45215	2.99664	1.8259	1.42873	2.9434	70.66	-0.237	-0.0205	0.2165	920.2909	0.137789	-421.825599	-421.818998	-421.818054	-421.856788	26.708	
O	-0.030248772	-0.0270328925	-0.0820400406	-0.313247
C	-0.0323586617	 1.1718206671	 0.0206208621	 0.395566
C	-1.2836007707	 2.057829214	 0.1509270976	-0.337579
C	-0.7563279808	 3.4459997658	 0.4715992254	 0.108709
O	-0.3367387536	 3.5650832494	 1.8598800738	-0.315796
C	 1.0567889863	 3.6805046484	 1.4975793952	 0.121589
C	 1.7725421561	 2.3147055201	 1.4822288968	-0.244932
C	 1.2124187365	 2.0613404128	 0.0318094849	-0.143388
C	 0.7168471582	 3.5352791906	-0.0061395051	-0.121987
H	-1.8124413678	 2.0457697834	-0.8113176736	 0.128722
H	-1.9687984631	 1.6703761578	 0.9088001041	 0.143557
H	-1.4318428034	 4.2613978401	 0.1967847604	 0.082571
H	 1.5396388361	 4.5346882537	 1.9771807854	 0.081844
H	 2.8606941928	 2.4211870952	 1.4661474246	 0.112722
H	 1.4889624751	 1.6066397405	 2.2641755114	 0.122363
H	 1.9487186122	 1.7171285303	-0.6935646073	 0.098139
H	 1.0135490298	 4.2099328434	-0.8052903451	 0.081148
74.7808	215.3814	323.7294	379.1616	441.3625	545.9223	592.6963	647.6863	699.7583	745.2671	807.405	829.8338	856.8772	900.2297	916.6125	944.249	956.0329	973.8149	1012.5894	1031.7134	1044.9321	1103.8607	1136.0289	1164.185	1177.3361	1192.2412	1213.9064	1248.7996	1255.8168	1280.5239	1295.9129	1304.2909	1331.0208	1356.6704	1428.2968	1467.7304	1842.2182	3035.7185	3060.4642	3062.5693	3086.0152	3111.5961	3116.9503	3124.9814	3145.423
O=C1CC2OC3CC1C23	O=C1C[C@H]2O[C@H]3C[C@@H]1[C@@H]23	
InChI=1S/C7H8O2/c8-4-2-6-7-3(4)1-5(7)9-6/h3,5-7H,1-2H2	InChI=1S/C7H8O2/c8-4-2-6-7-3(4)1-5(7)9-6/h3,5-7H,1-2H2/t3-,5-,6+,7+/m0/s1
