18
gdb 37934	2.54323	2.39795	1.83156	0.4941	72.92	-0.2232	0.0839	0.3071	832.4734	0.151975	-401.91179	-401.905748	-401.904803	-401.941838	25.909	
C	 0.0371046632	 1.6411612297	-0.0143870818	-0.2518
C	 1.5124626698	 1.9912995346	-0.1960493472	-0.099425
C	 2.3919371686	 1.5612995662	 0.9483619884	 0.079801
O	 1.7752763345	 1.2447882961	 2.16245802	-0.252475
C	 1.4024095303	-0.1132320716	 2.2981600471	-0.104342
C	 0.7248795439	-0.6798656397	 1.0744610675	-0.026437
C	-0.0093343644	 0.11421814	 0.0506625775	-0.052403
N	 1.3323874269	-0.4562473284	-0.2530888912	-0.125866
C	 2.2604053611	 0.6717713395	-0.2703180308	-0.069514
H	-0.3892440223	 2.1128339273	 0.8762062403	 0.121537
H	-0.5381634298	 1.9801103368	-0.8807794583	 0.107713
H	 1.7860392439	 2.8509366335	-0.79726269	 0.086867
H	 3.3382584377	 2.0770224695	 1.0919959979	 0.094867
H	 2.284182466	-0.7360087309	 2.5257088098	 0.098882
H	 0.7309415179	-0.1584254775	 3.1617931427	 0.115607
H	 0.4005886651	-1.7101070046	 1.2218419158	 0.089777
H	-0.8418120416	-0.371872534	-0.4527556932	 0.091804
H	 3.1236158192	 0.5248419738	-0.9091381946	 0.095409
209.4583	244.334	380.2323	458.1061	516.8997	588.7722	689.968	702.9689	725.045	761.7482	798.3571	799.9393	831.259	871.4198	931.752	939.8759	978.23	1013.5927	1050.9935	1058.6351	1080.9369	1092.311	1103.9553	1119.8618	1139.4797	1156.8015	1206.1962	1225.1521	1275.6609	1290.1091	1301.2259	1309.4528	1339.4636	1374.1701	1386.4549	1423.3077	1447.0027	1485.0767	1502.7426	2963.0286	3055.4762	3070.5604	3095.1155	3103.0688	3132.1286	3132.7342	3168.3223	3177.8144
C1C2C3OCC4C1N4C23	C1[C@H]2[C@H]3OC[C@H]4[C@@H]1N4[C@@H]23	
InChI=1S/C7H9NO/c1-3-6-7(3)9-2-5-4(1)8(5)6/h3-7H,1-2H2	InChI=1S/C7H9NO/c1-3-6-7(3)9-2-5-4(1)8(5)6/h3-7H,1-2H2/t3-,4-,5+,6+,7-,8?/m1/s1
