19
gdb 40064	3.20978	1.53794	1.44229	1.6442	73.84	-0.2401	0.0793	0.3194	982.7025	0.161719	-423.015309	-423.008356	-423.007412	-423.046557	28.563	
C	 0.1113630321	 1.505784137	-0.0116004907	-0.270875
O	 1.238578933	 0.6150224815	-0.0079488077	-0.289823
C	-0.0758057136	 0.0581985228	 0.0153679167	 0.485692
C	-0.5009095826	-0.7873526118	 1.2297152054	-0.31611
C	-1.1557966272	-2.0140476483	 0.543766362	-0.05335
C	-2.4435338707	-1.5297364306	-0.140303338	-0.068363
O	-1.972908721	-0.6960469743	-1.2185415584	-0.278942
C	-0.5371503224	-0.7647334011	-1.1854494756	 0.016932
C	-0.2580192374	-2.1932196811	-0.7043868535	-0.245765
H	-0.0244716348	 2.085421533	 0.9007663335	 0.112919
H	-0.0465653792	 2.0574538545	-0.9377114737	 0.117288
H	 0.3858975357	-1.0715743027	 1.8039955111	 0.117492
H	-1.1876049363	-0.261588622	 1.8994400154	 0.106229
H	-1.289719555	-2.8828480097	 1.1884391816	 0.072684
H	-3.0362088385	-2.357927211	-0.550690059	 0.097281
H	-3.0854991071	-0.9403037352	 0.5255536246	 0.098225
H	-0.1414578983	-0.4433022437	-2.1482571152	 0.080068
H	 0.793659452	-2.3681500333	-0.4642616778	 0.114291
H	-0.6156421987	-2.9550175739	-1.4009813708	 0.104126
99.6275	232.0317	306.5245	325.8273	395.6908	443.3971	481.4052	530.9029	668.9319	794.3988	817.9674	839.5552	852.7033	906.2121	919.8001	927.2967	943.8006	958.1148	968.7596	978.4833	991.3752	1075.1532	1084.118	1123.226	1124.6134	1158.7019	1161.0296	1185.3427	1223.5421	1232.5625	1258.0509	1282.4311	1297.9477	1311.1425	1328.1387	1378.5952	1439.3319	1479.9094	1491.9674	1528.7081	1537.3547	3009.7803	3049.7109	3054.1877	3068.3776	3079.5336	3100.813	3116.881	3125.757	3131.7561	3164.961
C1OC11CC2COC1C2	C1O[C@]21C[C@H]1CO[C@@H]2C1	
InChI=1S/C7H10O2/c1-5-2-7(4-9-7)6(1)8-3-5/h5-6H,1-4H2	InChI=1S/C7H10O2/c1-5-2-7(4-9-7)6(1)8-3-5/h5-6H,1-4H2/t5-,6+,7-/m0/s1
