14
gdb 11020	4.238	1.79259	1.51936	4.9958	57.42	-0.2631	0.0067	0.2697	819.5156	0.107605	-419.700471	-419.693722	-419.692778	-419.73124	25.704	
O	-0.1197948827	 1.3912900199	 0.0741127691	-0.459659
C	-0.0693289842	 0.00523677	 0.0274427044	 0.370559
C	-0.4768702842	-0.7585991574	-1.1900956025	-0.348383
C	-1.3233951167	-0.8230290683	 0.0820457983	-0.244412
C	-1.0278123442	-1.9825142305	 0.9778536507	 0.459245
O	-1.7616308578	-2.8421046865	 1.3667794809	-0.340508
O	 0.2993180753	-1.9457610496	 1.3290460956	-0.231529
C	 0.9086947633	-0.7008571182	 0.9614310535	-0.144738
H	 0.5111709378	 1.7419139115	-0.5636352694	 0.293783
H	-0.9199983773	-0.183906563	-1.9957565168	 0.131859
H	 0.0855692495	-1.6349994075	-1.4969157104	 0.135069
H	-2.3215541211	-0.4089350903	 0.0755618693	 0.131304
H	 1.8795615509	-0.919193262	 0.5050318118	 0.11741
H	 1.0609736115	-0.0919101782	 1.8594672956	 0.13
144.7595	194.0451	255.7407	321.0692	372.8817	414.7708	500.2475	563.7332	673.5716	711.1779	772.2593	818.1822	907.4309	930.7178	961.1631	996.7744	1048.9334	1060.1731	1074.998	1086.4337	1165.4035	1204.6636	1245.1785	1297.5593	1324.9098	1363.5143	1420.1786	1487.0909	1518.1409	1887.0717	3039.4705	3087.4274	3128.2902	3221.0902	3228.7914	3805.2497
OC12CC1C(=O)OC2	O[C@]12C[C@H]1C(=O)OC2	
InChI=1S/C5H6O3/c6-4-3-1-5(3,7)2-8-4/h3,7H,1-2H2	InChI=1S/C5H6O3/c6-4-3-1-5(3,7)2-8-4/h3,7H,1-2H2/t3-,5-/m0/s1
