16
gdb 74657	4.69996	1.40614	1.23565	1.6426	68.56	-0.2349	0.0059	0.2408	1000.9292	0.125321	-437.836117	-437.829318	-437.828373	-437.867254	26.907	
C	 0.0020807114	 1.4789674988	 0.0682208871	-0.466153
C	-0.0094308563	-0.0100455502	-0.0624375139	 0.405723
N	-0.0296290371	-0.6235556748	-1.1756922951	-0.329889
C	-0.0373929811	-2.0656802393	-1.076271905	 0.016273
C	-0.9277449082	-2.7213066315	 0.0217051233	-0.005911
O	-0.0325592334	-3.8864385078	 0.0506261017	-0.299995
C	 0.8762161611	-2.732836456	-0.004662128	-0.005914
C	-0.0058808975	-2.0468968861	 1.0714817107	 0.104466
O	 0.0043316335	-0.6332166709	 1.1524582345	-0.267863
H	 0.8936631135	 1.8052526145	 0.6131647388	 0.143749
H	-0.0101387944	 1.9309588371	-0.9225938822	 0.15158
H	-0.8681565768	 1.8165321889	 0.6401173473	 0.143737
H	-0.054740747	-2.5579398897	-2.04788677	 0.09428
H	-2.0030921204	-2.8893073893	 0.0402368053	 0.103219
H	 1.9494107222	-2.9145703709	-0.0175336107	 0.103219
H	 0.0061838507	-2.4605592526	 2.0777836763	 0.10948
129.2249	156.0547	307.1699	321.6075	437.0229	440.0621	498.2381	616.2091	660.1446	773.4301	775.0915	846.7689	871.2345	898.553	902.3801	909.612	976.264	1014.4866	1015.8161	1066.1009	1087.9068	1145.8463	1147.0152	1177.8698	1178.2838	1214.695	1236.3422	1257.0545	1261.5075	1335.0448	1382.9888	1410.1218	1474.5012	1475.1077	1727.9239	3049.1192	3106.1012	3126.5847	3136.4953	3139.8168	3155.0706	3168.6787
CC1=NC2C3OC2C3O1	C[C]1[N][C@@H]2[C@H]3O[C@@H]2[C@H]3O1	
InChI=1S/C6H7NO2/c1-2-7-3-4-6(8-2)5(3)9-4/h3-6H,1H3	InChI=1S/C6H7NO2/c1-2-7-3-4-6(8-2)5(3)9-4/h3-6H,1H3/t3-,4-,5+,6+
