17
gdb 6686	4.34268	0.8143	0.7724	4.0072	77.26	-0.2668	0.0207	0.2874	1512.6241	0.140287	-326.721209	-326.711708	-326.710764	-326.758846	32.505	
C	-0.3046577701	 1.4758924154	 0.8411529271	-0.376259
C	-0.0618128396	 0.2147381098	-0.0117023711	-0.127505
C	 0.9745886919	-0.7194887229	 0.6445010584	-0.375715
C	-1.3153576433	-0.4951087555	-0.2689838348	 0.141027
C	-2.3474697883	-1.0830060804	-0.4600232262	 0.022943
C	-3.5999253437	-1.795467708	-0.7016997816	-0.472187
C	-3.9461908202	-2.7344231973	 0.3746245245	 0.27948
N	-4.229269902	-3.4752858322	 1.2137143858	-0.30256
H	 0.6347810259	 2.0179377451	 0.987462324	 0.116164
H	-1.0197947847	 2.1473041394	 0.3588146543	 0.123983
H	-0.7018834544	 1.2052223587	 1.8240937311	 0.129426
H	 0.3416633565	 0.5365451009	-0.9819127013	 0.108843
H	 1.9199368163	-0.1879296153	 0.7911249936	 0.11573
H	 0.6188699007	-1.0646035959	 1.6199067914	 0.131212
H	 1.1638218775	-1.5979627705	 0.0223778174	 0.126283
H	-4.4321411185	-1.0886409072	-0.8160405225	 0.179579
H	-3.5494586341	-2.3602841744	-1.6417524602	 0.179556
2.5025	67.0235	114.1662	185.7572	226.8272	262.7013	284.5997	316.8553	361.8914	375.3128	473.131	540.8488	585.8583	722.6531	877.785	927.208	932.1994	936.5321	965.5267	1069.4595	1120.2412	1150.4156	1208.8035	1234.6301	1322.2934	1336.9719	1350.8619	1396.836	1419.036	1449.0947	1485.6581	1489.1595	1498.8101	1510.2119	2368.816	2376.9105	3007.6401	3022.7295	3038.3489	3041.6385	3051.8483	3110.8066	3115.6342	3120.034	3122.5593
CC(C)C#CCC#N	CC(C)C#CCC#N	
InChI=1S/C7H9N/c1-7(2)5-3-4-6-8/h7H,4H2,1-2H3	InChI=1S/C7H9N/c1-7(2)5-3-4-6-8/h7H,4H2,1-2H3
