16
gdb 26592	2.40902	1.8665	1.05854	3.5204	78.5	-0.2006	-0.0213	0.1793	1079.897	0.12625	-434.124199	-434.116224	-434.11528	-434.156748	30.366	
C	-0.0118353379	 1.5168573191	-0.0282955341	-0.473532
C	-0.0137657943	 0.0182388715	-0.0737928658	 0.192679
C	-1.1467155948	-0.7217752305	 0.0870788819	 0.310348
O	-2.3673683391	-0.1938363153	 0.300994121	-0.436174
C	-1.1125204779	-2.1755291736	 0.0370762664	 0.313157
N	-2.2154538156	-2.8208560766	 0.1959136702	-0.599788
N	 0.1594555873	-2.6840316123	-0.1844192994	-0.369985
C	 1.257034018	-1.873650115	-0.3373485244	 0.068936
N	 1.2147814352	-0.5908163583	-0.2913099645	-0.316295
H	 0.6533423019	 1.871246806	 0.7668252618	 0.134939
H	 0.3727298879	 1.9243025198	-0.9697597277	 0.134937
H	-1.0145733212	 1.9086649443	 0.1457324859	 0.142154
H	-2.9573980819	-0.9706804749	 0.3727536218	 0.305435
H	-2.1167840133	-3.8320063391	 0.1489876666	 0.207371
H	 0.2741072492	-3.6861731212	-0.2335789838	 0.257898
H	 2.1967445065	-2.3922959341	-0.5053522359	 0.12792
84.8593	132.8507	190.5389	288.0161	305.4195	336.6849	513.7284	515.3998	520.1769	560.4399	572.1066	619.9915	659.0171	701.4257	748.9156	778.4558	887.8053	897.2266	956.0497	1044.2603	1060.0325	1099.4623	1151.7568	1260.6834	1293.6165	1357.1306	1405.4196	1420.9756	1452.4242	1474.0873	1480.5306	1487.1819	1631.0904	1687.1082	1709.6883	3037.2051	3088.6713	3149.554	3172.6339	3512.8004	3565.2105	3606.7755
CC1=C(O)C(=N)NC=N1	C[C@@H]1C(=C([NH])NC=N1)O	
InChI=1S/C5H7N3O/c1-3-4(9)5(6)8-2-7-3/h2,9H,1H3,(H2,6,7,8)	InChI=1S/C5H8N3O/c1-3-4(9)5(6)8-2-7-3/h2-3,6,9H,1H3,(H,7,8)/t3-/m1/s1
