19
gdb 39632	3.84574	1.17959	1.12862	1.9084	74.92	-0.2386	0.0762	0.3148	1142.2426	0.159593	-422.930337	-422.922581	-422.921637	-422.963716	29.455	
C	 0.0255711772	 1.4372501992	-0.1561208279	-0.081761
O	 1.2814071187	 1.5369083631	 0.5407948527	-0.27179
C	 1.4031270247	 0.100415151	 0.6179431256	-0.080711
C	-0.0172442711	-0.0969822603	 0.0410727898	-0.196226
C	-1.0451115588	-0.583940724	 1.0108020939	 0.44092
C	-1.3492009415	-0.1271022434	 2.4671995685	-0.255398
C	-2.1265991376	-1.4271196358	 2.16573741	 0.046204
C	-2.5617942795	-0.8547371277	 0.798826305	-0.268639
O	-0.9119787473	-1.9788084325	 1.5215893969	-0.350939
H	-0.7683277206	 2.011847645	 0.3363807175	 0.102015
H	 0.1055453288	 1.7623443449	-1.2012894007	 0.100709
H	 2.2109843718	-0.2767358842	-0.0213309848	 0.101402
H	 1.5618236526	-0.2517475676	 1.6425240098	 0.115286
H	-0.0686962168	-0.6886571937	-0.8756849878	 0.090431
H	-0.524452026	-0.2342016596	 3.1721784304	 0.111576
H	-1.9183749538	 0.7948759375	 2.6106447072	 0.097184
H	-2.6709687836	-2.079773408	 2.8471632181	 0.097898
H	-3.2439567669	-0.0005004075	 0.7876673002	 0.095343
H	-2.7934017603	-1.5997002665	 0.0362833357	 0.106497
50.9863	61.601	167.9245	221.0038	344.6719	412.285	527.0424	585.5482	623.6742	733.8257	794.1084	832.9995	878.85	892.8301	915.041	936.4019	939.9263	975.2548	985.1199	1029.3611	1040.7996	1051.1645	1070.2768	1094.7206	1121.1524	1131.4029	1156.5479	1159.5163	1171.0381	1215.3022	1228.537	1237.0189	1248.8167	1307.6048	1314.3644	1377.7329	1394.7164	1466.7973	1512.0186	1514.4189	1538.5659	3009.17	3022.7922	3053.5424	3057.6264	3067.4063	3072.6588	3088.0122	3127.2292	3143.305	3150.5058
C1OCC1C12CC(C1)O2	C1OCC1[C@@]12C[C@@H](C1)O2	
InChI=1S/C7H10O2/c1-6-2-7(1,9-6)5-3-8-4-5/h5-6H,1-4H2	InChI=1S/C7H10O2/c1-6-2-7(1,9-6)5-3-8-4-5/h5-6H,1-4H2/t6-,7+
