13
gdb 127199	3.45287	1.38619	0.99529	2.3069	68.37	-0.2481	-0.0747	0.1734	1085.6241	0.08932	-448.921222	-448.913061	-448.912117	-448.955033	28.183	
C	 0.0624559493	 1.4175212944	 0.0159328331	-0.342636
N	 0.0289839433	-0.032729981	 0.0230618059	-0.167989
C	 0.0644043124	-0.8099376288	-1.1265340633	 0.484913
N	 0.1289911842	-0.3745778235	-2.3075334053	-0.605397
O	 0.0139179846	-2.1153798303	-0.6802746545	-0.233271
N	-0.0518650575	-2.1509242282	 0.7238705696	-0.169762
C	-0.039655182	-0.9018719313	 1.0770346974	 0.332015
C	-0.0930222923	-0.4844244666	 2.4367057694	 0.271222
N	-0.1344869533	-0.0968852984	 3.5247830292	-0.317238
H	 0.9809226919	 1.7637382896	-0.4644447416	 0.168704
H	-0.7910533237	 1.804250552	-0.546363317	 0.168702
H	 0.0231998012	 1.7794240553	 1.0438549037	 0.165751
H	 0.1432825419	-1.1287200732	-2.9887126968	 0.244987
38.7744	110.6284	146.6018	169.2466	257.519	279.8492	436.2289	488.0235	542.0121	607.2019	682.9609	700.5881	728.7283	761.0313	785.1722	928.4426	1002.903	1015.991	1161.1152	1199.1382	1214.2294	1352.07	1451.4235	1472.4028	1485.2254	1532.3256	1599.7102	1794.3319	2369.4937	3057.2297	3126.4749	3159.8549	3549.8937
CN1C(=N)ON=C1C#N	CN1[C@H]([NH])ON=C1C#N	
InChI=1S/C4H4N4O/c1-8-3(2-5)7-9-4(8)6/h6H,1H3	InChI=1S/C4H5N4O/c1-8-3(2-5)7-9-4(8)6/h4,6H,1H3/t4-/m0/s1
