19
gdb 55448	3.46974	1.20311	0.92238	2.7927	81.11	-0.2055	0.0146	0.2201	1257.0467	0.162341	-419.267263	-419.2589	-419.257956	-419.300561	32.177	
N	-0.0096148887	 1.4120494053	 0.1709928158	-0.567762
C	 0.0630424907	 0.0314542284	 0.0124198796	 0.451865
O	 1.1312490669	-0.5507589651	-0.0461002074	-0.398994
N	-1.1506619364	-0.6313364559	-0.1167473088	-0.143119
C	-1.1227862569	-2.1003135413	-0.090734356	-0.152595
C	-2.2491875238	-2.6916003241	-0.9381799888	-0.223305
C	-3.6164284942	-2.1527398687	-0.4921387831	-0.256045
C	-3.5504408208	-0.6545560482	-0.3715030369	-0.141031
C	-2.3916378591	-0.000601757	-0.2336044721	 0.033472
H	 0.8980039348	 1.7880560078	 0.4033713194	 0.26089
H	-0.7524428639	 1.7815186609	 0.7449109798	 0.253325
H	-0.1402184588	-2.4095321278	-0.444682863	 0.148925
H	-1.2228754626	-2.4402232563	 0.9497981827	 0.106803
H	-2.0825238829	-2.430968288	-1.9895390228	 0.113599
H	-2.2105574514	-3.7826522338	-0.8633773629	 0.10199
H	-4.3896937256	-2.4381918748	-1.215006627	 0.104567
H	-3.9144985019	-2.6137774329	 0.4609075581	 0.107091
H	-4.4615045054	-0.07272929	-0.450837776	 0.088308
H	-2.35996907	 1.0802426615	-0.2470372306	 0.112016
58.9495	97.431	206.0934	245.5595	283.9161	377.2714	426.4608	451.574	507.6783	527.2232	579.3483	599.8615	704.2879	733.3433	769.0521	781.8288	873.8728	882.5138	945.4147	953.3562	1003.7344	1057.7233	1089.9974	1098.1492	1146.4537	1163.9701	1207.4224	1264.9578	1294.7596	1331.0852	1353.8552	1367.3426	1393.2402	1427.6622	1450.208	1479.496	1489.5376	1512.0106	1623.5495	1714.8529	1784.2566	2997.0823	3006.0169	3039.4345	3053.7255	3089.9595	3141.1723	3189.351	3227.9964	3573.6216	3681.6097
NC(=O)N1CCCC=C1	NC(=O)N1CCCC=C1	
InChI=1S/C6H10N2O/c7-6(9)8-4-2-1-3-5-8/h2,4H,1,3,5H2,(H2,7,9)	InChI=1S/C6H10N2O/c7-6(9)8-4-2-1-3-5-8/h2,4H,1,3,5H2,(H2,7,9)
