18
gdb 49089	3.39307	1.4905	1.23131	3.5066	75.87	-0.24	-0.0245	0.2155	1029.0372	0.149397	-401.924876	-401.917734	-401.91679	-401.956385	28.434	
O	-0.5298127721	 0.7039371948	 0.6998115645	-0.269514
C	 0.2081121033	 1.0073678281	-0.2059266286	 0.091934
C	 1.3770399813	 1.910764786	-0.0598632768	 0.252471
C	 1.8249590881	 2.3866518524	 1.3151870559	-0.316362
C	 2.4628859928	 3.7754250784	 1.0465337738	-0.215871
C	 2.7969459159	 3.7216460103	-0.4490593167	-0.063954
C	 3.6277059	 2.4519135233	-0.7703184268	-0.159666
N	 2.3945643033	 1.67808994	-1.1548290298	-0.186168
C	 1.6236292665	 2.950376435	-1.1040376576	-0.082814
H	 0.0614603024	 0.627159389	-1.239693141	 0.085556
H	 0.9604955138	 2.4304279557	 1.9808316718	 0.132564
H	 2.5346768126	 1.6843229564	 1.7643353458	 0.114361
H	 1.7446444657	 4.5777038313	 1.2480016107	 0.107507
H	 3.3495894848	 3.9597429014	 1.661397373	 0.103399
H	 3.1233937151	 4.6605145057	-0.8955333045	 0.079493
H	 4.2482326913	 2.551059991	-1.6634385736	 0.119194
H	 4.2225638655	 2.0084553346	 0.0351728611	 0.106228
H	 0.9313517299	 3.2594406165	-1.8793428212	 0.101642
106.0716	199.3709	233.7898	298.5232	372.9768	412.1644	462.4029	600.8625	653.3017	711.721	781.0038	822.5837	842.5315	875.6914	900.7548	902.5785	951.7923	974.8244	986.7544	1038.2151	1043.952	1056.9986	1098.6986	1153.6312	1163.1805	1180.1517	1214.4034	1258.6959	1277.0152	1288.2491	1289.2911	1332.748	1345.1614	1359.9685	1421.5177	1486.2425	1493.5767	1514.1508	1813.7904	2906.9544	3041.976	3045.5614	3058.1975	3087.5773	3108.2448	3115.0097	3120.0216	3174.66
O=CC12CCC3CN1C23	O=C[C@@]12CC[C@H]3CN1[C@@H]23	
InChI=1S/C7H9NO/c9-4-7-2-1-5-3-8(7)6(5)7/h4-6H,1-3H2	InChI=1S/C7H9NO/c9-4-7-2-1-5-3-8(7)6(5)7/h4-6H,1-3H2/t5-,6+,7+,8?/m0/s1
