22
gdb 105802	2.32672	1.43983	1.17888	1.7277	85.81	-0.2145	0.0664	0.2809	1199.4042	0.193692	-367.122886	-367.113801	-367.112857	-367.156529	35.126	
C	 0.3459881945	 1.4487432711	 1.0277933394	-0.372736
C	 0.200654299	 0.0632131008	 0.3819526599	-0.293548
C	-1.2343676896	-0.3301029946	 0.1582492705	 0.330085
C	-2.1063798962	-1.031156528	 1.1660849583	-0.062573
C	-3.3548783129	-0.5458007666	 1.8996575442	-0.443186
C	-1.8657783766	-1.6641923757	-0.1976141645	-0.112663
N	-2.5171763909	-1.1258523292	-1.4529379381	-0.133431
C	-3.4772726837	-0.0586977228	-1.1245399163	-0.254976
C	-2.0267534058	 0.2371704911	-1.0462765403	-0.096497
H	 1.3991600647	 1.7163085709	 1.1578116045	 0.111787
H	-0.1206693878	 2.2240916875	 0.4104568098	 0.118581
H	-0.1348516415	 1.4755521986	 2.0110475899	 0.117034
H	 0.7363493918	 0.0489378012	-0.5770428886	 0.100854
H	 0.6835652502	-0.6915888487	 1.0145443946	 0.096644
H	-1.4520736909	-1.5781031672	 1.8472697249	 0.091007
H	-4.2171397074	-1.200592455	 1.7339954154	 0.127854
H	-3.1600724464	-0.5382192305	 2.9769384344	 0.112767
H	-3.637995108	 0.4715230546	 1.6210023753	 0.130125
H	-1.420972247	-2.6488791243	-0.2856800133	 0.095583
H	-3.9840787827	 0.3082622922	-2.0143440887	 0.118497
H	-4.1137530499	-0.1389103822	-0.2574216447	 0.124208
H	-1.5385232129	 0.8758507867	-1.7774566767	 0.094584
76.4214	130.9258	146.6019	199.4969	215.8144	300.8303	310.5127	355.1782	414.2657	491.3555	587.3337	665.7122	696.2356	733.4326	761.2067	780.7435	834.2867	904.3829	921.9084	959.2542	974.2709	996.6112	1014.3988	1054.0061	1066.5428	1091.5222	1098.8589	1105.5535	1120.0814	1141.2745	1159.9475	1213.3399	1232.8878	1256.2404	1295.2917	1346.2442	1355.8984	1369.475	1407.8919	1413.8676	1473.5922	1481.5561	1495.867	1497.5607	1504.2105	1506.9153	1517.58	3012.8836	3032.4854	3034.0836	3051.4002	3082.8911	3096.5961	3100.6473	3106.2037	3117.9863	3126.3163	3143.9536	3172.3869	3265.8621
CCC12C(C)C1N1CC21	CC[C@]12[C@@H](C)[C@H]1N1C[C@@H]21	
InChI=1S/C8H13N/c1-3-8-5(2)7(8)9-4-6(8)9/h5-7H,3-4H2,1-2H3	InChI=1S/C8H13N/c1-3-8-5(2)7(8)9-4-6(8)9/h5-7H,3-4H2,1-2H3/t5-,6-,7+,8+,9?/m0/s1
