17
gdb 51228	3.81056	1.27999	1.16825	2.8488	72.83	-0.2295	0.0188	0.2482	1073.7552	0.137326	-417.946118	-417.938708	-417.937763	-417.978647	28.485	
O	 0.0872197312	 0.6860041184	-1.5713460257	-0.308321
C	 0.1007866501	 1.4554176111	-0.6392850224	 0.13315
N	 1.1714600511	 1.698706274	 0.180789409	-0.424737
C	 2.4072657957	 1.0134815743	 0.1128399233	 0.386653
C	 2.9789958775	-0.0677323115	 1.0185667869	-0.222404
N	 4.3440276825	 0.2255656785	 0.4265113946	-0.167672
C	 4.1489946717	-0.2425287721	-1.0093384309	-0.175305
C	 3.1847660688	 0.9073078962	-1.21542878	-0.086401
C	 3.7902294546	 1.5945361779	-0.0283446706	-0.107733
H	-0.7716545152	 2.0757431404	-0.3496676866	 0.076336
H	 1.018399315	 2.3266334642	 0.9562674391	 0.247978
H	 2.9718121509	 0.2196506181	 2.0742386062	 0.102478
H	 2.6436739278	-1.1051028238	 0.9123781736	 0.108815
H	 5.08466338	-0.1171536824	-1.5597134339	 0.113287
H	 3.793433341	-1.273474218	-1.1090773903	 0.107836
H	 2.7717167522	 1.3337583458	-2.119119854	 0.112093
H	 4.2297355649	 2.561907039	 0.1688888417	 0.103948
46.5953	131.7154	201.7654	297.6626	397.8146	451.0727	480.0192	547.2938	574.5218	720.4139	780.4864	813.4933	838.4579	847.9508	878.8896	919.5402	963.7321	976.5177	1019.811	1028.7105	1045.3425	1087.7243	1103.5318	1119.1519	1147.3174	1153.4973	1189.9039	1220.029	1255.1361	1284.235	1308.2395	1406.8223	1439.0435	1500.7973	1514.3223	1523.0046	1817.53	2927.9689	3036.1239	3047.0635	3094.6722	3106.1534	3210.4713	3223.5266	3601.1408
O=CNC12CN3CC1C23	O=CN[C@@]12CN3C[C@@H]1[C@@H]23	
InChI=1S/C6H8N2O/c9-3-7-6-2-8-1-4(6)5(6)8/h3-5H,1-2H2,(H,7,9)	InChI=1S/C6H8N2O/c9-3-7-6-2-8-1-4(6)5(6)8/h3-5H,1-2H2,(H,7,9)/t4-,5+,6+/m1/s1
