20
gdb 40157	3.75863	1.18611	1.0868	2.0311	79.03	-0.2346	0.0757	0.3103	1187.6258	0.171893	-403.107984	-403.09991	-403.098965	-403.141432	31.761	
C	-0.1042943553	 1.3515184373	-0.2023183632	-0.324786
C	 1.302518496	 0.8419375803	 0.0827864108	-0.3443
C	 0.1534518891	-0.1010706579	 0.1124576929	 0.460615
C	-0.4033354603	-0.7936740701	 1.3430492509	-0.38311
C	-1.4907627455	-1.6771533181	 0.7280173841	 0.309122
C	-2.1698408429	-2.7578582119	 1.4766152311	-0.296157
N	-2.9119692387	-1.5457403292	 1.0740608925	-0.352095
C	-1.1538148914	-1.7479314467	-0.7686715367	-0.134029
O	 0.0729372987	-1.0394027703	-0.9343215787	-0.291531
H	-0.5893285831	 1.9748106527	 0.5419353668	 0.107378
H	-0.339926283	 1.5972673531	-1.2315620021	 0.12166
H	 1.9808893978	 0.7583108721	-0.7588293872	 0.126422
H	 1.774372454	 1.1129317907	 1.021439199	 0.112963
H	 0.3730574596	-1.4072783489	 1.8150381573	 0.113021
H	-0.7937636999	-0.0997491667	 2.0927083819	 0.102649
H	-2.4747515889	-3.6692336609	 0.9677685103	 0.117903
H	-1.9141602307	-2.8935507039	 2.5253603417	 0.110135
H	-3.0275683207	-0.9286120137	 1.8745700779	 0.227413
H	-0.9987950156	-2.7675042964	-1.1338292786	 0.107617
H	-1.965803579	-1.2837483016	-1.3451034708	 0.109107
25.4603	123.7264	242.0633	275.8547	338.0025	383.3306	403.1759	430.6978	475.1695	586.3376	759.0651	777.0949	781.3554	825.531	865.7294	904.4599	909.2792	938.4717	949.2033	964.3138	989.3312	1016.1242	1043.2385	1062.4087	1075.3186	1077.131	1104.7078	1134.9927	1165.8014	1188.0791	1228.9146	1251.7675	1258.032	1284.0607	1305.1275	1358.5545	1379.1444	1415.8003	1451.6604	1481.8676	1500.1038	1515.0627	1517.1166	3010.7102	3033.1691	3080.4983	3090.6118	3095.9836	3129.4086	3134.0717	3179.0782	3215.3246	3229.1921	3491.4671
C1CC11CC2(CN2)CO1	C1CC21C[C@]1(CN1)CO2	
InChI=1S/C7H11NO/c1-2-7(1)3-6(4-8-6)5-9-7/h8H,1-5H2	InChI=1S/C7H11NO/c1-2-7(1)3-6(4-8-6)5-9-7/h8H,1-5H2/t6-/m0/s1
