21
gdb 57363	2.06208	1.56557	1.20472	4.9978	82.23	-0.2696	0.0251	0.2947	1156.5639	0.180828	-383.264951	-383.254963	-383.254019	-383.299352	37.848	
C	-0.3561340469	 1.5093944754	-0.0608800856	-0.44274
C	-0.0165016966	 0.0096597535	-0.001972054	 0.157788
C	 0.92786922	-0.2449792233	 1.1911057839	-0.41246
C	-1.3229502421	-0.7874299404	 0.1824501695	-0.417365
C	 0.6872722266	-0.4803058811	-1.2914587751	 0.161024
C	 0.4606713521	 0.1416276531	-2.6333387091	-0.27617
N	 1.7526955969	 0.298399194	-1.9595709938	-0.338708
C	 0.9745778894	-1.9066590073	-1.2888258422	 0.300348
N	 1.1721148982	-3.0457774851	-1.2774625164	-0.358174
H	 0.5253140482	 2.1416566899	-0.213612894	 0.113626
H	-1.0886906396	 1.7400801339	-0.8394376692	 0.123148
H	-0.7949204921	 1.8115264021	 0.8945717191	 0.128821
H	 0.4504984506	 0.0644938371	 2.1259858036	 0.115815
H	 1.1839833106	-1.3046991731	 1.277020359	 0.143766
H	 1.8610758946	 0.3184236676	 1.0860427258	 0.117334
H	-2.0106273554	-0.6168424854	-0.6524196081	 0.116634
H	-1.1302641452	-1.8614985937	 0.2488215575	 0.145045
H	-1.8265793991	-0.4777452972	 1.1035661188	 0.115992
H	 0.4806718776	-0.4857501567	-3.5189474761	 0.141941
H	-0.2134861215	 0.9899423505	-2.687845475	 0.124969
H	 1.8160461036	 1.216921556	-1.5280800088	 0.239365
45.7506	154.6135	192.6688	201.4734	258.847	261.3968	282.9512	304.3242	314.1876	369.6292	383.9782	444.6377	460.324	574.4995	598.9559	614.3572	803.2452	863.9076	890.3784	932.3357	935.6501	943.3374	964.6115	982.937	1023.7234	1047.3925	1077.2373	1137.7947	1209.612	1235.8661	1239.9433	1263.7175	1310.5391	1338.129	1402.8535	1405.446	1435.8891	1479.5077	1484.3191	1488.6434	1501.5528	1503.0492	1515.769	1522.1036	2353.951	3033.8041	3034.4105	3040.8199	3098.5148	3102.709	3105.8585	3112.7593	3116.0403	3120.7044	3126.8414	3215.0425	3510.6788
CC(C)(C)C1(CN1)C#N	CC(C)(C)[C@]1(CN1)C#N	
InChI=1S/C7H12N2/c1-6(2,3)7(4-8)5-9-7/h9H,5H2,1-3H3	InChI=1S/C7H12N2/c1-6(2,3)7(4-8)5-9-7/h9H,5H2,1-3H3/t7-/m1/s1
