16
gdb 45093	2.85658	1.74826	1.28487	3.5239	68.06	-0.245	-0.0297	0.2153	963.1098	0.125973	-437.86004	-437.853144	-437.8522	-437.891408	27.29	
O	 0.0463173668	-0.0370369526	 0.0374570654	-0.312083
C	 0.003122506	 1.1707325918	 0.0032350845	 0.386113
C	-1.2931024028	 1.9739483617	 0.0223870399	-0.325121
C	-1.3408791636	 3.0109942664	-1.1015873928	-0.051625
N	-1.0601724148	 4.4109713081	-0.7471400506	-0.316614
C	-0.0738653458	 3.6557459167	-1.5373041965	-0.064455
C	 1.206926273	 3.2674545322	-0.8471475819	 0.054334
O	 1.2071054299	 3.267713476	 0.5657997801	-0.223186
C	 1.260871073	 1.9907520415	-0.0844666356	-0.071491
H	-2.1240119402	 1.2693239261	-0.0437746363	 0.123259
H	-1.3497637312	 2.4995447452	 0.981618111	 0.153918
H	-2.0878797718	 2.8271957681	-1.8693262255	 0.100244
H	-1.5805583677	 5.0397406345	-1.3535297279	 0.237312
H	 0.0458010796	 3.8992544309	-2.5902032268	 0.090602
H	 2.1313335506	 3.6247221557	-1.3007008409	 0.107526
H	 2.192668959	 1.4378946076	 0.0085124737	 0.111266
99.021	199.6219	249.7157	376.7965	437.2024	461.8657	469.0208	555.2687	625.0867	714.0752	757.4283	823.0131	842.4816	892.0478	901.7393	918.0196	953.7537	981.791	1008.7709	1048.8371	1099.9405	1114.8771	1159.5351	1182.8493	1219.2115	1240.2379	1260.2076	1266.7829	1305.7986	1354.5875	1392.075	1434.1195	1448.7674	1458.8774	1813.1987	3057.5019	3110.51	3122.3207	3136.6189	3145.1676	3152.387	3504.765
O=C1CC2NC2C2OC12	O=C1C[C@H]2N[C@H]2[C@H]2O[C@@H]12	
InChI=1S/C6H7NO2/c8-3-1-2-4(7-2)6-5(3)9-6/h2,4-7H,1H2	InChI=1S/C6H7NO2/c8-3-1-2-4(7-2)6-5(3)9-6/h2,4-7H,1H2/t2-,4-,5+,6-/m1/s1
