17
gdb 14473	2.88256	2.37237	1.95971	1.9665	67.76	-0.2232	0.0685	0.2917	787.8071	0.141665	-363.799434	-363.791943	-363.790999	-363.830888	28.638	
C	-0.1171392862	 1.5260440394	-0.0256779995	-0.531665
C	 0.0697377284	 0.0498205168	 0.0308968789	 0.311791
C	 0.6768975845	-0.9741672505	-0.8521307221	-0.077696
C	 1.3988955357	-1.6665814687	 0.2994967037	-0.315472
C	 0.3280013709	-0.9893046379	 1.2011165621	 0.316194
O	 0.5828828967	-0.6246302547	 2.5129783012	-0.478306
C	-0.976319416	-1.6599349252	 0.7327620149	-0.206943
N	-0.816825877	-0.9746439647	-0.5922695935	-0.187705
H	 0.7956116119	 2.0509543721	 0.2753079008	 0.127627
H	-0.3715872646	 1.831807863	-1.045169442	 0.133817
H	-0.9253762616	 1.8502349521	 0.6388238938	 0.130341
H	 0.973931034	-0.9007250612	-1.8905380519	 0.097122
H	 1.4634396062	-2.7609492911	 0.3119119175	 0.089594
H	 2.3860453086	-1.2254281659	 0.4612881314	 0.108617
H	 0.9318664431	-1.3875391615	 2.9869449535	 0.284695
H	-1.0281395721	-2.7553371449	 0.6969466688	 0.087839
H	-1.8626127825	-1.2559684171	 1.2285220126	 0.11015
101.023	178.7422	196.0498	214.9563	358.221	375.8436	468.0334	486.5011	615.8441	655.1881	705.5473	746.9287	831.5078	875.2484	914.0703	940.6294	965.7613	978.435	1056.2819	1082.8191	1090.3067	1112.2723	1142.5683	1168.3015	1175.2865	1228.838	1253.0179	1264.653	1296.4926	1368.7782	1403.8562	1456.7995	1479.4849	1489.9788	1491.5996	1515.5053	3022.7933	3030.9939	3034.075	3094.7212	3102.65	3105.5169	3109.4566	3195.8462	3802.3256
CC12C3CC1(O)CN23	C[C@@]12[C@H]3C[C@]1(O)CN23	
InChI=1S/C6H9NO/c1-5-4-2-6(5,8)3-7(4)5/h4,8H,2-3H2,1H3	InChI=1S/C6H9NO/c1-5-4-2-6(5,8)3-7(4)5/h4,8H,2-3H2,1H3/t4-,5-,6+,7?/m1/s1
