16
gdb 44351	3.88303	1.55733	1.26971	4.2121	76.	-0.2228	-0.0482	0.1746	965.9303	0.12637	-400.695821	-400.689231	-400.688287	-400.726574	27.13	
O	 0.0747406553	-0.0909565743	-0.1369768402	-0.363192
C	 0.0327499401	 1.1170026739	-0.0530919664	 0.380153
N	-1.1603205629	 1.8196771661	 0.1312611734	-0.33981
C	-1.2858037338	 3.2156389833	-0.2503187003	 0.049748
C	-0.6038885748	 4.5291869207	 0.2864827188	-0.08154
C	 0.8649886975	 4.4945668728	 0.8229982565	-0.280876
C	 1.0044115405	 3.3487998192	-0.1660708815	 0.171852
C	 1.1761306566	 2.0658588968	 0.1640281506	-0.256836
C	-0.1844320922	 3.8255767145	-1.0023802062	-0.179671
H	-1.991500857	 1.2529421256	 0.0368431481	 0.245309
H	-2.2988090314	 3.4379172434	-0.5767380946	 0.107079
H	-1.2393422384	 5.4055596195	 0.3763091951	 0.098032
H	 1.3534376408	 5.4333728447	 0.5391599291	 0.115956
H	 1.0559528867	 4.2702680902	 1.875938667	 0.111493
H	 1.8497129994	 1.7781134126	 0.968035769	 0.120218
H	-0.1580404764	 4.1648760612	-2.0307521985	 0.102085
128.6567	225.3782	360.3204	423.0277	465.28	491.6333	523.318	569.0134	654.7039	703.6761	741.0977	776.1732	822.6433	840.006	865.8551	923.4668	937.8751	971.9623	985.9596	1047.8264	1049.2826	1071.137	1072.8925	1117.6963	1176.1842	1216.1862	1235.9596	1244.301	1307.4537	1326.5458	1396.9411	1454.1753	1494.5753	1680.57	1801.3069	3035.794	3099.904	3138.9953	3153.7215	3156.4631	3180.5563	3601.3251
O=C1NC2C3CC(=C1)C23	O=C1N[C@H]2[C@H]3C[C]([CH]1)[C@@H]23	
InChI=1S/C7H7NO/c9-5-2-3-1-4-6(3)7(4)8-5/h2,4,6-7H,1H2,(H,8,9)	InChI=1S/C7H7NO/c9-5-2-3-1-4-6(3)7(4)8-5/h2,4,6-7H,1H2,(H,8,9)/t4-,6+,7-/m0/s1
