19
gdb 43022	2.71	1.81679	1.35443	3.1108	79.91	-0.2272	-0.008	0.2193	987.7925	0.161782	-385.861594	-385.854774	-385.85383	-385.892508	28.695	
O	-0.1125088654	-0.0124218047	-0.0276862558	-0.32691
C	-0.0989189657	 1.1871069059	 0.0011068882	 0.392083
C	-1.2987067305	 2.1593409404	 0.0801247167	-0.124166
C	-0.8109733147	 3.3763304158	 0.9727960243	-0.337173
C	 0.2354849216	 3.490330811	-0.1602692706	 0.347677
C	 1.4920735741	 4.2171963258	-0.6809571735	-0.348154
C	 2.0381056464	 2.7954970153	-1.086626186	-0.275077
C	 1.0572712519	 2.2023971928	-0.0216761437	-0.104328
C	-0.8972867227	 3.0530615372	-1.1327696027	-0.266451
H	-2.2845952693	 1.7123404297	 0.1910832609	 0.084439
H	-1.5736104005	 4.1598807328	 1.0003019064	 0.105327
H	-0.4430869767	 3.1662977998	 1.980872568	 0.102607
H	 1.3542109325	 4.9597371454	-1.4708887181	 0.102213
H	 2.0951353779	 4.6547655619	 0.1201107407	 0.110191
H	 1.77990386	 2.5293794074	-2.1130491913	 0.118791
H	 3.1005532634	 2.6055297055	-0.9282883613	 0.109286
H	 1.5731916087	 2.1509868709	 0.9456620033	 0.097997
H	-0.6381252346	 2.5593446736	-2.0736580714	 0.106453
H	-1.6169816864	 3.8553732136	-1.3142215341	 0.105195
138.7692	261.2251	289.0369	308.0743	467.7098	499.1648	534.0261	567.6314	652.9502	692.7226	760.5892	796.8303	827.8119	853.7276	878.0953	903.884	937.0048	938.5923	983.9182	1001.2386	1020.6004	1054.6929	1081.6124	1103.5162	1126.4411	1141.6103	1174.9242	1200.2357	1213.5457	1227.0656	1229.3483	1246.0562	1264.3338	1277.9463	1300.2541	1319.5013	1480.6691	1487.4606	1497.3046	1522.207	1864.4047	3028.2006	3049.4142	3053.8187	3056.8839	3082.1738	3108.6202	3110.522	3113.6018	3139.3609	3144.6979
O=C1C2CC3(CCC13)C2	O=C1[C@H]2C[C@]3(CC[C@H]13)C2	
InChI=1S/C8H10O/c9-7-5-3-8(4-5)2-1-6(7)8/h5-6H,1-4H2	InChI=1S/C8H10O/c9-7-5-3-8(4-5)2-1-6(7)8/h5-6H,1-4H2/t5-,6-,8+/m1/s1
