22
gdb 115927	3.53883	1.10678	0.93608	1.9928	82.2	-0.2161	0.0803	0.2964	1322.3939	0.195773	-404.318062	-404.309326	-404.308381	-404.351654	33.499	
C	 0.0128439587	 1.3586264945	 0.1493422456	-0.240984
O	-0.0954877476	-0.029538961	-0.0641091042	-0.245199
C	 0.6298352436	-0.5171423734	-1.181090416	 0.140285
C	 2.1235101954	-0.7022422259	-0.9008397344	-0.23826
C	 2.8184017904	-1.1862939219	-2.1806301686	-0.235614
C	 2.1156977768	-2.3725491619	-2.8183908073	 0.014807
C	 1.7374783234	-3.5727870078	-2.0288177089	-0.245283
N	 0.7026204215	-2.6709398974	-2.5348273693	-0.102733
C	-0.0267603546	-1.8528598726	-1.5511658103	-0.174739
H	 1.0380376614	 1.6725183059	 0.3950872279	 0.10557
H	-0.3203204777	 1.9321222163	-0.729912264	 0.104595
H	-0.6343084013	 1.6051186359	 0.9949001271	 0.127416
H	 0.519289308	 0.187882404	-2.0238231676	 0.062569
H	 2.5769575006	 0.2377932285	-0.5709219137	 0.096838
H	 2.2467459573	-1.4186178839	-0.080130876	 0.104892
H	 2.8285055456	-0.3619975751	-2.9058428872	 0.10349
H	 3.8684628692	-1.4359575698	-1.9870449032	 0.104483
H	 2.3757478402	-2.5260429551	-3.8651579853	 0.086274
H	 1.7621558074	-4.562665343	-2.4789092878	 0.108453
H	 1.944718813	-3.5636382389	-0.9597017032	 0.105522
H	-0.1644782017	-2.4183729296	-0.62169848	 0.110375
H	-1.0270437794	-1.6534764577	-1.9498420137	 0.107239
70.7295	97.9548	183.3268	192.7141	280.0485	317.1195	346.0515	405.341	456.9789	467.3413	511.7663	635.3061	751.3743	781.6132	825.5959	895.3289	923.2459	953.407	970.125	1001.83	1039.0446	1072.3664	1108.9175	1117.9261	1126.3853	1133.8445	1149.7053	1170.9739	1182.281	1206.3714	1223.522	1250.4569	1279.7384	1323.1629	1333.3938	1347.4576	1375.7515	1386.1005	1410.7713	1419.5575	1480.3854	1488.5281	1491.53	1496.5214	1501.7534	1510.9735	1523.4176	2945.369	2976.859	3018.5941	3023.6305	3030.3683	3039.6702	3056.0536	3069.5297	3083.0946	3088.8739	3104.9289	3111.0767	3168.1536
COC1CCC2CN2C1	CO[C@H]1CC[C@H]2CN2C1	
InChI=1S/C7H13NO/c1-9-7-3-2-6-4-8(6)5-7/h6-7H,2-5H2,1H3	InChI=1S/C7H13NO/c1-9-7-3-2-6-4-8(6)5-7/h6-7H,2-5H2,1H3/t6-,7-,8?/m0/s1
