21
gdb 115396	3.12808	1.07554	0.94628	1.4936	74.3	-0.2554	0.0694	0.3248	1306.5446	0.183797	-461.368752	-461.359889	-461.358945	-461.402184	34.42	
O	 0.0263021332	 1.3881949403	 0.1793062918	-0.425428
C	 0.0406927015	-0.0153227675	 0.0295350755	-0.067377
C	-1.3697791338	-0.5900070273	-0.0170168577	 0.107943
C	-1.4222645304	-2.1123447623	-0.1597133769	-0.22395
C	-2.862302127	-2.6263666307	 0.0063031824	-0.230701
C	-3.4981105456	-2.051021314	 1.2836970444	 0.142565
O	-2.8894791014	-2.5784835337	 2.4556470866	-0.445759
C	-3.3675933587	-0.527093584	 1.2715721806	-0.11115
O	-1.9892883395	-0.1741399298	 1.2101785528	-0.291603
H	-0.5839141865	 1.5652133672	 0.9053626298	 0.289075
H	 0.5606134829	-0.2375410949	-0.9081513674	 0.108621
H	 0.5965228689	-0.5051501797	 0.8466568872	 0.085815
H	-1.9144585637	-0.116992009	-0.8519356362	 0.074885
H	-1.0151424047	-2.4071577418	-1.1330007873	 0.103015
H	-0.780457257	-2.5652637899	 0.6061398236	 0.105242
H	-3.4681525474	-2.3251293655	-0.858480659	 0.094243
H	-2.8792328062	-3.7190718471	 0.0525967173	 0.108962
H	-4.5567618967	-2.3296250212	 1.3341155294	 0.081613
H	-2.0875690757	-2.0621262205	 2.6010435863	 0.284514
H	-3.9155546997	-0.09019455	 0.4219886535	 0.094218
H	-3.7550409924	-0.1002406187	 2.2007444834	 0.115257
85.8622	127.5853	178.9212	223.8472	245.1779	364.4404	393.2575	394.8968	416.2322	447.8845	487.5501	515.163	544.9844	728.5009	798.1604	826.4065	872.1876	909.6011	939.1791	985.924	1018.8346	1062.0493	1071.858	1088.7494	1096.6799	1124.4809	1148.9791	1198.8045	1213.5346	1244.3524	1259.2067	1293.7654	1324.4775	1345.7158	1361.5219	1381.1081	1386.1927	1394.4395	1408.5841	1428.2571	1442.7301	1476.3876	1485.3539	1492.6761	1500.2738	2959.2305	2972.706	2987.7175	3024.5396	3032.4476	3052.8447	3073.2459	3080.9611	3089.2059	3094.702	3784.2166	3790.89
OCC1CCC(O)CO1	OC[C@H]1CC[C@@H](O)CO1	
InChI=1S/C6H12O3/c7-3-6-2-1-5(8)4-9-6/h5-8H,1-4H2	InChI=1S/C6H12O3/c7-3-6-2-1-5(8)4-9-6/h5-8H,1-4H2/t5-,6-/m1/s1
