21
gdb 90980	2.65155	1.83129	1.33702	1.4059	81.63	-0.2525	0.0735	0.326	1028.2368	0.183882	-387.061462	-387.053599	-387.052655	-387.093224	32.359	
C	-0.1413229318	 1.5420772702	-0.0063121952	-0.399412
C	 0.0166851885	 0.0217028624	-0.0049599361	-0.055589
C	 0.9380797999	-0.5498570019	-1.1185635929	-0.266785
C	 1.977575049	-1.2760196186	-0.2611431537	-0.001238
C	 1.2621935997	-1.9819095341	 0.9307190428	-0.133458
C	 2.500450854	-1.7122242553	 1.8187891636	-0.251618
C	 2.3061481002	-0.4118732475	 0.9995805368	-0.095585
C	 0.7679352931	-0.5173698428	 1.2241308665	 0.462136
O	 0.2905869885	-0.1532864022	 2.4857645282	-0.497735
H	 0.8357726439	 2.0380323724	 0.0016614057	 0.115492
H	-0.6821534916	 1.88387111	-0.8947008724	 0.108712
H	-0.6886617481	 1.879524479	 0.8793074822	 0.114738
H	-0.9804476279	-0.4383922653	-0.0521210655	 0.055061
H	 0.4145565744	-1.2288534404	-1.7991802012	 0.094725
H	 1.3860777356	 0.2438129934	-1.7264973527	 0.096102
H	 2.7981425136	-1.7988446123	-0.7539248889	 0.063807
H	 0.6471053936	-2.8839962084	 0.8801856355	 0.057319
H	 2.3240720979	-1.638546219	 2.8929280287	 0.104189
H	 3.3963968528	-2.2985450136	 1.596336972	 0.083452
H	 2.9066929115	 0.4991971743	 1.0311236296	 0.066101
H	-0.6239533569	-0.4471500203	 2.558036097	 0.279585
122.3973	220.1876	241.0121	260.3239	336.3881	344.454	368.5978	468.6849	483.4153	632.9398	669.7679	690.899	753.8149	842.863	855.1845	895.4008	915.3544	916.1582	938.1835	963.8945	1003.3133	1029.4644	1050.2453	1064.2196	1066.0079	1102.4965	1125.5602	1142.5298	1148.8263	1182.1817	1201.2702	1219.9757	1241.17	1247.2756	1269.1537	1272.4432	1311.1553	1324.5643	1368.9731	1390.2863	1409.5529	1494.3623	1495.4019	1500.0351	1509.9824	2998.0993	3030.3089	3040.6736	3056.6704	3077.589	3080.459	3093.1124	3098.1809	3105.4128	3111.9872	3129.2555	3802.6783
CC1CC2C3CC2C13O	C[C@H]1C[C@@H]2[C@H]3C[C@@H]2[C@@]13O	
InChI=1S/C8H12O/c1-4-2-5-6-3-7(5)8(4,6)9/h4-7,9H,2-3H2,1H3	InChI=1S/C8H12O/c1-4-2-5-6-3-7(5)8(4,6)9/h4-7,9H,2-3H2,1H3/t4-,5-,6-,7+,8-/m0/s1
