17
gdb 119560	3.15137	1.06113	0.87341	1.4675	69.27	-0.2442	-0.0281	0.2162	1314.7611	0.133627	-458.931975	-458.923022	-458.922078	-458.966552	32.047	
O	-0.0657992387	 1.4595328892	-0.1724210269	-0.420179
C	 0.0047050291	 0.0449102417	-0.1062980087	-0.080315
C	-1.4163966524	-0.4630559057	 0.1409826827	-0.326183
C	-1.467742414	-1.9506363325	 0.2457647367	 0.295757
O	-1.3779662114	-2.7545466308	-0.9631492228	-0.280123
C	-2.4817099526	-2.9857375812	-0.0943315117	-0.053904
C	-1.9842251963	-3.9807744077	 0.9624822643	-0.371519
C	-0.9338279077	-2.8879948282	 1.3346568496	 0.384215
O	-0.142527992	-2.7615040857	 2.2208764348	-0.299073
H	 0.8249384688	 1.7991636002	-0.297563889	 0.289098
H	 0.3886375144	-0.3864470842	-1.0432070059	 0.104101
H	 0.6588292601	-0.2923811488	 0.7113482475	 0.113851
H	-1.7900107752	-0.019032516	 1.0706888875	 0.124324
H	-2.0683770675	-0.1285932766	-0.6723912918	 0.124434
H	-3.4815735091	-2.8383811624	-0.4838874151	 0.122671
H	-2.6663464477	-4.1556142435	 1.8003287788	 0.134162
H	-1.6113555178	-4.9309189778	 0.5758423698	 0.138684
55.7751	91.2307	108.9927	153.6661	245.941	250.951	345.3402	353.0707	452.7022	508.1455	579.0446	675.9416	744.1977	766.0763	817.6885	871.3986	932.3645	955.1283	988.2255	1012.3489	1043.0197	1066.1961	1086.4713	1136.1122	1179.9749	1212.3068	1231.7219	1259.3569	1263.9796	1318.6489	1325.4236	1433.4288	1451.8799	1462.584	1476.215	1531.4039	1893.2689	2983.7319	3018.0262	3045.4938	3066.4116	3095.3748	3131.2089	3201.5379	3833.647
OCCC12OC1CC2=O	OCC[C@]12O[C@H]1CC2=O	
InChI=1S/C6H8O3/c7-2-1-6-4(8)3-5(6)9-6/h5,7H,1-3H2	InChI=1S/C6H8O3/c7-2-1-6-4(8)3-5(6)9-6/h5,7H,1-3H2/t5-,6+/m0/s1
