19
gdb 105770	2.27448	1.40251	1.15198	3.9937	75.26	-0.2339	0.0314	0.2653	1154.4816	0.160898	-419.218737	-419.209838	-419.208893	-419.252476	33.248	
O	 0.0901634994	 1.1450023228	 0.4806459019	-0.419297
C	-0.1144197225	-0.222587238	 0.1925198239	-0.101697
C	-1.6003864999	-0.5282853799	-0.1363454254	 0.11282
C	-1.874899484	-2.0550697526	-0.1272922351	-0.2544
C	-2.2732527958	-2.3218144157	 1.3328069659	-0.222688
C	-3.0689869832	-1.0583539361	 1.6981347798	-0.151444
N	-2.5059468319	 0.0261549076	 0.8753738729	-0.32058
C	-1.8823345897	 0.0773338901	-1.4572160232	 0.263529
N	-2.041281741	 0.5779482247	-2.4874523183	-0.352339
H	-0.0420072814	 1.6456813506	-0.3335905466	 0.302041
H	 0.5267535944	-0.5710173098	-0.6296401419	 0.111334
H	 0.1603604047	-0.7687587124	 1.0998179272	 0.1153
H	-2.7036336319	-2.2862580857	-0.8019251917	 0.129857
H	-1.0042809493	-2.6246518846	-0.462512791	 0.11562
H	-2.8526700663	-3.2412801984	 1.4459762838	 0.108764
H	-1.3820264299	-2.4123096199	 1.9627795152	 0.108271
H	-4.131784709	-1.1951466875	 1.4573777483	 0.110645
H	-3.009894371	-0.8120589398	 2.7624020765	 0.107944
H	-2.0298600616	 0.7464212545	 1.4035900777	 0.236318
79.5637	102.4042	166.2068	190.492	201.1086	276.7883	360.3636	408.9217	447.8465	497.9972	565.624	598.1761	620.6549	709.9627	794.5135	875.0494	884.5281	922.1753	924.2551	971.2897	988.5349	1052.07	1096.5377	1100.3713	1140.1659	1160.4033	1205.0081	1233.8572	1260.4562	1273.3554	1326.9501	1342.2744	1369.4538	1387.5967	1419.0633	1441.6417	1489.7403	1495.1007	1502.3746	1524.5115	2345.1416	3005.1918	3010.1931	3049.5274	3065.517	3078.656	3091.7872	3103.4028	3116.4941	3564.6566	3788.3009
OCC1(CCCN1)C#N	OC[C@]1(CCCN1)C#N	
InChI=1S/C6H10N2O/c7-4-6(5-9)2-1-3-8-6/h8-9H,1-3,5H2	InChI=1S/C6H10N2O/c7-4-6(5-9)2-1-3-8-6/h8-9H,1-3,5H2/t6-/m0/s1
