18
gdb 128471	2.85849	1.27855	1.0103	3.1434	73.57	-0.2463	0.0035	0.2498	1210.3643	0.148453	-435.282597	-435.273657	-435.272713	-435.31776	31.664	
C	-0.1244483124	 0.9331567649	 0.8223628262	-0.234976
O	-0.2315590614	 0.1537219751	-0.3503230874	-0.244492
C	-1.3926570518	-0.6698460473	-0.4100894486	 0.035868
C	-1.5588478866	-1.0915962665	-1.864548948	-0.399146
C	-1.2798059542	-1.8465009528	 0.5279127319	 0.342478
N	-0.725525821	-2.9999745572	 0.1802610656	-0.263151
N	-0.804986833	-3.716312846	 1.3238396767	-0.174339
C	-1.3927082156	-2.9891555973	 2.293883102	 0.008928
N	-1.7101921695	-1.7980971526	 1.8280068728	-0.302121
H	 0.7763001814	 1.5428488626	 0.7143092003	 0.120034
H	-0.99323516	 1.598700259	 0.9451082689	 0.102016
H	-0.0373172529	 0.319699247	 1.7285132199	 0.119954
H	-2.2659215072	-0.085669487	-0.0808049525	 0.081028
H	-0.702439405	-1.6890029884	-2.1846391317	 0.143178
H	-2.4648264215	-1.6900181117	-1.9922698206	 0.11578
H	-1.625679041	-0.2021790394	-2.4955190913	 0.117264
H	-0.4586125008	-4.661517905	 1.3491133475	 0.283479
H	-1.5655250876	-3.3605533373	 3.2928341084	 0.148218
18.4499	98.8185	138.5367	205.8486	215.6978	237.2571	283.9664	370.1082	447.5553	525.1864	558.2255	685.0679	695.6125	810.2017	853.1282	866.2035	981.85	998.2159	1033.79	1084.5767	1109.6631	1123.6162	1144.7273	1180.6996	1186.8683	1230.0738	1264.8695	1312.3525	1370.3155	1396.5713	1410.623	1466.8194	1470.0078	1478.8222	1486.4783	1488.8687	1499.3291	1511.6688	1549.436	2981.7527	2989.5585	3046.4522	3054.3596	3111.9092	3129.2916	3139.9263	3258.3368	3661.5523
COC(C)C1=NNC=N1	CO[C@@H](C)c1n[nH]cn1	
InChI=1S/C5H9N3O/c1-4(9-2)5-6-3-7-8-5/h3-4H,1-2H3,(H,6,7,8)	InChI=1S/C5H9N3O/c1-4(9-2)5-6-3-7-8-5/h3-4H,1-2H3,(H,6,7,8)/t4-/m0/s1
