21
gdb 87770	3.73991	1.05148	1.04528	1.7196	83.94	-0.2391	0.0945	0.3336	1294.8194	0.180645	-387.0482	-387.039141	-387.038197	-387.081622	34.993	
C	-0.1341585418	 1.4968140056	-0.0227612759	-0.40438
C	-0.0225684874	-0.0100375729	 0.0454762652	-0.051484
C	 1.3039661917	-0.6967186602	-0.2097414112	-0.365895
C	 0.710919148	-0.6771049116	 1.1707418468	 0.373691
C	 1.3528722651	-0.0667296137	 2.4438986676	-0.388516
C	 0.9027968349	-1.3405757546	 3.1989816932	 0.425858
C	 1.5362254228	-1.9791126209	 4.3911917358	-0.498651
O	-0.5255132495	-1.4077183776	 3.0648829917	-0.290584
C	 0.2869302298	-1.8884325279	 1.975963968	-0.143994
H	 0.7742858115	 1.9793017349	 0.3531015658	 0.114299
H	-0.286669153	 1.8365213701	-1.053212841	 0.115883
H	-0.9751019359	 1.8596790049	 0.5781846723	 0.12277
H	-0.9006686847	-0.5416898307	-0.3146452035	 0.084759
H	 1.3088194785	-1.6340902162	-0.7579066278	 0.108721
H	 2.1718364104	-0.0702266304	-0.3958526761	 0.107553
H	 2.4397134442	 0.0319809063	 2.3693528447	 0.103343
H	 0.921759636	 0.863796721	 2.8229861587	 0.106461
H	 1.4054593359	-1.3541851281	 5.2822369237	 0.129472
H	 1.0800437981	-2.9526001319	 4.5898069159	 0.133087
H	 2.6107918389	-2.1181816102	 4.2342490063	 0.122965
H	 0.1259450264	-2.9108380258	 1.6496573299	 0.094641
86.377	139.7665	182.0814	199.8262	214.8945	269.4692	331.1889	394.568	407.1435	444.5253	505.446	558.3356	671.8097	774.2884	792.4369	858.5592	868.1469	889.2632	907.2636	934.2531	980.8445	988.277	1019.2164	1028.0073	1058.1117	1091.0961	1110.8134	1128.4825	1165.5946	1180.8754	1193.1419	1202.6101	1241.2222	1259.627	1337.6853	1402.2666	1411.0293	1431.1533	1452.7931	1474.6315	1484.0145	1491.0859	1492.6133	1496.8608	1508.7707	3026.6767	3032.1066	3052.6206	3089.8411	3093.7052	3094.1931	3108.7569	3115.11	3120.0421	3131.2977	3170.865	3198.3788
CC1CC11CC2(C)OC12	C[C@H]1C[C@]21C[C@@]1(C)O[C@@H]21	
InChI=1S/C8H12O/c1-5-3-8(5)4-7(2)6(8)9-7/h5-6H,3-4H2,1-2H3	InChI=1S/C8H12O/c1-5-3-8(5)4-7(2)6(8)9-7/h5-6H,3-4H2,1-2H3/t5-,6+,7+,8+/m0/s1
