17
gdb 65747	3.07586	1.04385	0.98923	2.1914	70.08	-0.2512	-0.0445	0.2067	1245.6201	0.131819	-458.969476	-458.959976	-458.959032	-459.005044	32.912	
C	-0.2271374262	 1.5975321263	 0.257921959	-0.431388
C	 0.006506614	 0.1047091753	 0.0678873663	 0.249911
C	-1.2879844182	-0.693715219	-0.1621639477	-0.306054
C	-1.9634559535	-0.3015956676	-1.4633218867	 0.151743
O	-3.0841611325	 0.1318604413	-1.5402751885	-0.236583
O	 0.98909096	-0.1741099387	-0.9775792543	-0.325234
C	 1.9312473699	-0.7951973603	-0.0813963893	-0.195517
C	 0.9687483037	-0.5450576641	 1.0846755242	 0.313235
O	 0.9535956104	-0.7538510033	 2.2576625663	-0.276468
H	 0.7214412625	 2.122935326	 0.3941854316	 0.130181
H	-0.7350199236	 2.0225913652	-0.6129295159	 0.145578
H	-0.8526863469	 1.769582217	 1.1388095282	 0.143787
H	-1.0390140576	-1.7613941102	-0.2203481657	 0.122092
H	-1.9839386539	-0.5385882116	 0.666291858	 0.136173
H	-1.3329642297	-0.4439800929	-2.3665307685	 0.101904
H	 2.1229545665	-1.8497980191	-0.3157901234	 0.137348
H	 2.8867732451	-0.2593387045	-0.0229590436	 0.139292
43.9097	63.5965	101.9897	140.3427	185.0357	221.4665	274.1648	333.9796	398.8789	473.9102	535.0776	553.1804	673.6404	722.1849	839.8461	858.7695	919.3727	959.7183	995.6229	1015.1998	1040.2792	1051.6978	1131.1527	1139.9127	1184.7395	1207.7612	1258.171	1298.0517	1319.575	1406.7805	1420.1657	1452.6247	1480.7344	1481.7103	1491.7383	1829.1327	1923.3735	2912.451	3020.8047	3029.4064	3044.6926	3066.9885	3112.7894	3120.3756	3127.0508
CC1(CC=O)OCC1=O	C[C@@]1(CC=O)OCC1=O	
InChI=1S/C6H8O3/c1-6(2-3-7)5(8)4-9-6/h3H,2,4H2,1H3	InChI=1S/C6H8O3/c1-6(2-3-7)5(8)4-9-6/h3H,2,4H2,1H3/t6-/m0/s1
