16
gdb 54722	5.2905	1.22667	1.13578	5.3876	68.21	-0.2582	0.0065	0.2647	1054.7795	0.126855	-437.86744	-437.860693	-437.859749	-437.898476	26.975	
O	 0.28913063	 0.3532114413	-1.0244885166	-0.347008
C	-0.1828868373	 1.0550413483	-0.1817700232	 0.455029
O	 0.4579911738	 1.418722113	 0.9774275694	-0.250976
C	-1.5237676452	 1.7466358643	-0.0677725491	-0.220789
C	-1.9311304069	 1.6243399946	 1.4464615604	-0.070999
C	-0.5185620266	 2.2468693718	 1.6283550149	 0.125118
N	-2.5911032405	 3.7859347219	 2.6269779396	-0.527105
H	-3.3739495409	 3.4602024152	 3.1874221286	 0.232669
H	-2.771525826	 4.7684995707	 2.4398271626	 0.232675
C	-2.5369441358	 3.0459332298	 1.3765340977	-0.023582
C	-1.2184317392	 3.1496918977	 0.5741049918	-0.07085
H	-2.2432030837	 1.6221891029	-0.8726817265	 0.097351
H	-2.3340254312	 0.7370924711	 1.9363785331	 0.090259
H	-0.1514790742	 2.6180820609	 2.5771848408	 0.120065
H	-3.4409193868	 3.1122452697	 0.7539431459	 0.067814
H	-0.8014653393	 4.0168975668	 0.0606834205	 0.090331
149.8383	209.7887	212.5643	352.0345	419.5371	433.1712	567.951	643.2308	726.2336	744.8198	806.6165	842.4568	853.2954	888.0687	909.4313	910.689	942.5891	976.6762	1014.607	1051.5792	1087.8414	1095.6393	1126.0542	1145.7787	1156.2578	1182.5015	1198.0709	1215.6428	1248.6449	1288.722	1313.4499	1347.3032	1419.8043	1657.5848	1907.5576	2989.7653	3111.7008	3113.0706	3165.024	3212.4951	3486.0445	3558.6313
[O-]C(=O)C1C2C3[NH2+]C2C13	O=C1O[C@@H]2[C@@H]3[C@H]1[C@H]2[C@@H]3N	
InChI=1S/C6H7NO2/c8-6(9)1-2-4-3(1)5(2)7-4/h1-5,7H,(H,8,9)	InChI=1S/C6H7NO2/c7-4-2-1-3(4)5(2)9-6(1)8/h1-5H,7H2/t1-,2+,3-,4+,5+
