20
gdb 110746	2.58163	1.25998	1.07647	2.3946	80.38	-0.2368	-0.0198	0.217	1240.0205	0.169226	-403.132378	-403.122973	-403.122028	-403.16675	34.653	
C	 0.0103636651	 1.4406054238	-0.2447821683	-0.375024
C	 0.0277521936	 0.0075636096	 0.3019023163	-0.230904
C	-1.33027204	-0.6603309885	 0.192871438	-0.015009
N	-1.9463848825	-1.1599779548	-1.0442616671	-0.173916
C	-0.8431380374	-1.7617518499	-1.8722714612	-0.294909
C	-0.5801072458	-2.7907030039	-0.7591184886	 0.355624
O	-0.0111565185	-3.8441994591	-0.7047890595	-0.309604
C	-1.6057805588	-2.1295631176	 0.11853479	 0.169654
C	-2.6026245847	-2.8532521465	 0.9729885052	-0.497267
H	 0.9848600913	 1.9206388953	-0.1172053589	 0.118869
H	-0.2387063572	 1.4557780446	-1.3107343457	 0.128021
H	-0.7357308368	 2.0515650113	 0.2745285607	 0.121526
H	 0.8070499203	-0.576281162	-0.1954338477	 0.113778
H	 0.3002174566	 0.0207961855	 1.3643774872	 0.11104
H	-2.0869375992	-0.1420124785	 0.7840818412	 0.100651
H	-1.2608928469	-2.2471204153	-2.7588372702	 0.140682
H	-0.0484570461	-1.0775006345	-2.177441597	 0.127824
H	-2.1315362426	-3.1908514533	 1.9023076956	 0.138535
H	-3.4385438229	-2.1978819745	 1.2321333987	 0.133707
H	-2.9973214676	-3.7345103218	 0.4584095313	 0.13672
76.1002	97.0453	124.8772	167.4051	212.2035	240.5031	281.7396	330.3238	409.2712	476.1208	537.9048	592.3313	635.6367	684.8609	717.7262	797.1247	842.7172	877.1708	937.5123	977.0072	1003.0523	1039.4029	1053.0526	1078.2554	1115.6911	1126.1334	1145.6444	1183.3599	1241.9699	1278.5345	1306.3722	1327.6526	1351.7326	1409.9896	1411.6742	1451.3873	1467.0462	1480.2468	1489.6237	1493.6631	1497.3448	1507.632	1880.708	3035.7879	3038.7522	3039.482	3065.8798	3080.6505	3096.6771	3104.872	3109.3609	3112.6869	3120.4134	3121.3303
CCC1N2CC(=O)C12C	CC[C@H]1N2CC(=O)[C@@]12C	
InChI=1S/C7H11NO/c1-3-5-7(2)6(9)4-8(5)7/h5H,3-4H2,1-2H3	InChI=1S/C7H11NO/c1-3-5-7(2)6(9)4-8(5)7/h5H,3-4H2,1-2H3/t5-,7-,8?/m1/s1
