20
gdb 14756	11.93021	0.56363	0.54735	1.034	78.96	-0.2538	0.0558	0.3096	1990.1095	0.174231	-348.964278	-348.954154	-348.95321	-349.000126	34.821	
C	-0.04391261	 1.3902126048	 0.0575113338	-0.22728
O	-0.0082775443	-0.0151374409	 0.0224887215	-0.230581
C	 0.6418935595	-0.5205881335	-1.1228605184	-0.055564
C	 0.6243575452	-2.0419299365	-1.0605017258	-0.19525
C	 1.3102432179	-2.688624238	-2.2664028561	-0.178103
C	 1.2881506828	-4.2289023394	-2.1956604245	-0.35562
C	 1.9378860763	-4.8620644323	-3.3368309769	 0.291943
C	 2.4790086225	-5.3588977649	-4.2883336154	-0.43607
H	 0.9680979692	 1.8263380145	 0.0679352813	 0.102099
H	-0.5856123434	 1.8087259607	-0.8061382699	 0.102098
H	-0.562693462	 1.6828700663	 0.9737658502	 0.126141
H	 0.1360940052	-0.1676258489	-2.0391851263	 0.08384
H	 1.6813090384	-0.1498178104	-1.1698741881	 0.083839
H	 1.1139959749	-2.3583374281	-0.1312559171	 0.106916
H	-0.4183492386	-2.376001238	-0.9933268223	 0.106914
H	 0.8221251533	-2.3702801993	-3.1951695062	 0.1105
H	 2.351752321	-2.3527272959	-2.3345589257	 0.110505
H	 1.7759282142	-4.5579225547	-1.268590102	 0.130483
H	 0.2484416275	-4.5755173597	-2.1284325971	 0.130493
H	 2.9537850404	-5.8093780257	-5.1240467851	 0.192695
53.8333	77.4994	80.2437	127.7405	141.4861	181.3536	234.4317	286.092	350.9759	357.8109	477.3172	544.5074	614.5171	635.0772	742.0133	799.5084	926.7416	946.5306	976.8957	1032.2601	1059.3958	1086.2092	1129.0396	1165.3804	1178.7587	1218.5136	1220.8292	1265.2699	1282.8906	1314.7426	1324.7473	1341.8447	1390.8685	1430.1664	1474.0987	1481.564	1484.7694	1490.0001	1501.808	1508.8959	1533.6229	2238.9481	2939.9088	2965.2197	2967.2201	3007.9913	3015.6547	3026.5568	3037.5954	3042.2995	3060.5795	3085.409	3112.0859	3508.8158
COCCCCC#C	COCCCCC#C	
InChI=1S/C7H12O/c1-3-4-5-6-7-8-2/h1H,4-7H2,2H3	InChI=1S/C7H12O/c1-3-4-5-6-7-8-2/h1H,4-7H2,2H3
