22
gdb 88674	3.05954	0.96324	0.87643	2.111	83.77	-0.2295	0.0793	0.3088	1446.9627	0.19247	-404.310097	-404.300071	-404.299127	-404.345167	37.874	
C	-0.2531478189	 1.5377730503	 0.0412347165	-0.434123
C	-0.0505914659	 0.0359199821	 0.0568498859	 0.325283
C	-1.2090258859	-0.7537621129	-0.5216491677	-0.456473
N	 1.3204819187	-0.4128561398	-0.2632362955	-0.382352
C	 0.7877299614	-0.6260348366	 1.0992369025	-0.06377
C	 1.4807252021	 0.0929023981	 2.2123949307	-0.01644
C	 0.869417089	 0.1112202283	 3.6039872566	-0.339829
C	 2.1185665423	-0.6859662333	 3.3304481179	 0.089125
O	 2.0372912136	-2.0812869322	 3.2555863688	-0.416548
H	 0.632958181	 2.0642401148	 0.3991255087	 0.123293
H	-0.4574647025	 1.8847490325	-0.9782326946	 0.11245
H	-1.1045774223	 1.8234308431	 0.6692351446	 0.110865
H	-1.361744453	-0.5027597091	-1.5785342417	 0.11711
H	-1.0311338965	-1.8319106093	-0.4511140911	 0.110755
H	-2.1439411168	-0.5326780353	 0.0058769147	 0.118675
H	 1.2972475312	-1.2839574646	-0.7882830299	 0.222326
H	 0.4984177076	-1.641242237	 1.3606460516	 0.086243
H	 2.0139475076	 0.985051549	 1.9036688735	 0.097162
H	 0.9339304789	 1.0163580961	 4.1981769521	 0.110266
H	-0.0441752403	-0.4594219734	 3.7404485879	 0.111083
H	 3.0612854465	-0.3084450845	 3.7259594912	 0.086586
H	 1.8814923724	-2.4160767664	 4.1445204574	 0.288313
41.9181	118.9757	143.2192	176.8075	212.1321	230.8026	305.5237	336.6755	358.3105	387.938	428.2207	442.2889	489.5637	578.6683	713.7403	771.7066	826.4766	848.223	876.6281	930.1972	957.6976	974.5924	991.2469	1012.1802	1029.3549	1054.8009	1075.8226	1092.8024	1131.1375	1143.8288	1160.5956	1171.1852	1231.8661	1245.0977	1294.9771	1307.1433	1336.5655	1364.7797	1411.1012	1416.5591	1422.9321	1466.6435	1477.9144	1488.0854	1493.5338	1499.6659	1516.4502	3018.8121	3031.7226	3080.0028	3088.3849	3095.9978	3099.2024	3125.4498	3134.4312	3135.9582	3173.5662	3214.8668	3490.0177	3809.7695
CC1(C)NC1C1CC1O	CC1(C)N[C@H]1[C@H]1C[C@H]1O	
InChI=1S/C7H13NO/c1-7(2)6(8-7)4-3-5(4)9/h4-6,8-9H,3H2,1-2H3	InChI=1S/C7H13NO/c1-7(2)6(8-7)4-3-5(4)9/h4-6,8-9H,3H2,1-2H3/t4-,5+,6-/m0/s1
