20
gdb 61808	2.7612	1.1117	0.93716	2.6116	76.27	-0.2503	0.0305	0.2808	1317.3939	0.169122	-440.298901	-440.289072	-440.288128	-440.334251	35.87	
C	-0.1473488734	 1.6618867147	-0.2033390812	-0.406321
C	-0.0258505865	 0.1372540861	-0.045798229	-0.028664
N	-1.3422584101	-0.4756584345	 0.0483638218	-0.282036
C	-1.9782186891	-0.6911078905	 1.2274469746	 0.153307
O	-1.5221303479	-0.4373706979	 2.3237738446	-0.332113
C	 0.7602049432	-0.5225572256	-1.1854037812	 0.404699
C	 2.0761238695	 0.121587401	-1.5612480974	-0.471099
C	 0.5540838449	-1.9461376555	-1.4833187526	-0.227431
O	-0.0523535785	-0.9323872531	-2.3027952277	-0.284494
H	 0.8302154023	 2.1496874176	-0.16408613	 0.121791
H	-0.6258931884	 1.920865825	-1.1536615852	 0.122532
H	-0.7554021727	 2.0591304576	 0.612614498	 0.140991
H	 0.482669599	-0.0764804926	 0.9001158489	 0.124596
H	-1.8070952122	-0.6787425031	-0.8245629319	 0.258041
H	-2.9802780938	-1.1406659427	 1.0787431215	 0.075972
H	 2.733142063	 0.196544313	-0.6879787621	 0.128707
H	 2.5831337015	-0.4708684713	-2.3260455807	 0.128788
H	 1.9251701646	 1.1289072486	-1.9585716087	 0.136084
H	 1.3523130271	-2.5087647724	-1.9643498932	 0.117298
H	-0.1382239325	-2.5345060744	-0.8863420786	 0.119352
34.7534	72.7336	169.6932	194.4724	221.5739	237.9355	271.1102	311.6297	367.0093	387.443	422.963	489.0662	552.5943	615.9874	675.5471	783.8613	850.5368	877.9987	924.0543	933.2916	1010.521	1031.8781	1044.3667	1083.085	1125.8269	1133.0212	1137.8315	1176.23	1209.4118	1251.3306	1339.5222	1363.8994	1390.7598	1406.0602	1420.4552	1427.79	1482.0433	1489.9764	1494.3924	1507.1506	1520.2647	1526.0397	1797.6907	2934.4502	3041.1693	3044.3183	3068.4853	3095.8998	3111.6365	3116.5619	3128.0014	3131.4483	3186.3759	3613.8423
CC(NC=O)C1(C)CO1	C[C@@H](NC=O)[C@@]1(C)CO1	
InChI=1S/C6H11NO2/c1-5(7-4-8)6(2)3-9-6/h4-5H,3H2,1-2H3,(H,7,8)	InChI=1S/C6H11NO2/c1-5(7-4-8)6(2)3-9-6/h4-5H,3H2,1-2H3,(H,7,8)/t5-,6-/m1/s1
