14
gdb 32387	6.56735	0.89584	0.79433	5.842	75.42	-0.222	-0.0575	0.1645	1359.9733	0.101851	-432.89845	-432.890342	-432.889398	-432.931475	28.853	
C	 0.0975766529	 1.4075315046	 0.1164812926	-0.335574
N	-0.1295843725	-0.0073994887	-0.103718989	-0.385925
C	 0.5475135803	-0.6429726898	-1.1123285424	 0.316063
C	 1.2169035343	-0.1349092088	-2.1962446809	-0.123217
O	 1.6706892168	-1.1949654685	-2.9380663741	-0.161284
C	 1.2620976666	-2.2803754918	-2.2546827893	 0.302911
N	 0.5946514438	-2.0217838318	-1.1668407591	-0.357922
C	 1.5953987603	-3.5572206582	-2.775553071	 0.262671
N	 1.8686260153	-4.5975590207	-3.2018549867	-0.325717
H	 1.1530793047	 1.6540422283	 0.3101998957	 0.121606
H	-0.2295018414	 1.9776565841	-0.7603638955	 0.13813
H	-0.5014490206	 1.737430471	 0.9669884879	 0.138964
H	-0.2354554441	-0.5786630738	 0.7209377436	 0.256069
H	 1.4412536537	 0.8464769842	-2.5709738019	 0.153225
81.3129	132.9401	164.9371	178.8855	221.1278	348.6853	417.0233	488.0475	494.2099	573.2354	644.8021	650.9453	708.7143	729.2023	745.2769	991.3225	1000.0208	1103.309	1131.1317	1156.7651	1172.9281	1252.1952	1311.3224	1354.6967	1461.5567	1481.5929	1492.6716	1521.1182	1571.2008	1654.587	2356.406	2985.1103	3063.7115	3132.2358	3313.9946	3619.992
CNC1=COC(=N1)C#N	CNc1coc(n1)C#N	
InChI=1S/C5H5N3O/c1-7-4-3-9-5(2-6)8-4/h3,7H,1H3	InChI=1S/C5H5N3O/c1-7-4-3-9-5(2-6)8-4/h3,7H,1H3
