19
gdb 121484	4.24524	0.59733	0.59373	3.3206	80.79	-0.2508	-0.0204	0.2304	1945.2608	0.157475	-456.380906	-456.370444	-456.3695	-456.418174	35.972	
C	-0.291527309	 1.6936835357	-0.1507282361	-0.500259
C	-0.0073193009	 0.3328660923	 0.4559710744	 0.412744
O	 0.4858661784	 0.1704607628	 1.5505420677	-0.335498
N	-0.365506944	-0.7332006713	-0.3578435738	-0.339607
C	-0.2090978314	-2.0619294532	 0.0013239809	 0.110596
N	-0.5626753064	-2.9917191235	-0.7846565118	-0.261974
C	-0.3604865099	-4.3604105941	-0.3407239657	-0.152967
C	 0.5059967823	-5.1072462987	-1.358635908	-0.044962
O	 1.7937756998	-4.5350753496	-1.4841079666	-0.420949
H	 0.2299421431	 1.8114115322	-1.1064154487	 0.1447
H	-1.3633230808	 1.8171334405	-0.3392294121	 0.146888
H	 0.0438484937	 2.4634854281	 0.5428639063	 0.158994
H	-0.7822517911	-0.5634761763	-1.2619562524	 0.259078
H	 0.2261363908	-2.1863489816	 0.9964945517	 0.141686
H	 0.1129106983	-4.414925644	 0.652739336	 0.095411
H	-1.33673898	-4.8600896267	-0.280756281	 0.103781
H	 0.6543399826	-6.1399153334	-1.0270811272	 0.1073
H	-0.0191521104	-5.1327250903	-2.3258553492	 0.092191
H	 1.6601701747	-3.6182939391	-1.7492753245	 0.282848
35.4073	58.2625	80.2218	113.3712	124.4933	183.6065	260.5951	313.9552	336.6771	376.1224	405.7458	525.6489	548.0535	585.4498	639.8206	652.9398	868.6816	897.9159	969.6411	981.405	1025.581	1053.6482	1067.6966	1079.3788	1129.0526	1213.5837	1224.3821	1255.1134	1261.9215	1349.9347	1380.653	1389.4272	1392.2468	1425.3339	1465.1635	1480.2212	1482.3739	1498.3017	1510.5174	1745.2545	1810.3975	2974.7168	2989.5303	3039.5598	3043.8664	3082.1734	3104.9221	3106.2374	3168.3884	3614.2926	3801.8649
CC(=O)NC=NCCO	CC(=O)NC=NCCO	
InChI=1S/C5H10N2O2/c1-5(9)7-4-6-2-3-8/h4,8H,2-3H2,1H3,(H,6,7,9)	InChI=1S/C5H10N2O2/c1-5(9)7-4-6-2-3-8/h4,8H,2-3H2,1H3,(H,6,7,9)
