19
gdb 109988	2.32159	1.35984	0.97028	1.0881	78.08	-0.2452	0.0488	0.294	1247.5729	0.157052	-422.964038	-422.954478	-422.953534	-422.998631	35.356	
C	-0.0863724491	 1.4011365521	-0.2539972755	-0.250276
O	-0.0599277437	 0.0069979124	 0.0069072245	-0.252357
C	-1.3399065276	-0.5775994087	 0.0624468294	 0.082695
C	-1.6842291639	-1.2853129798	-1.2928500291	 0.129049
O	-1.0535743727	-0.7810400372	-2.4354375132	-0.433659
C	-1.1795798449	-2.6265770629	-0.6911462059	-0.279595
C	-1.2886991891	-1.9901969929	 0.7328307797	-0.227836
C	-0.2584800687	-2.2669661038	 1.7093211273	 0.341065
C	 0.5979663853	-2.5128211947	 2.5164321712	-0.449095
H	 0.9520458407	 1.7406630148	-0.2676441456	 0.131151
H	-0.5550132691	 1.6277228348	-1.2202224977	 0.124709
H	-0.6271934615	 1.9400240098	 0.5372690297	 0.115731
H	-2.0711616099	 0.1276032993	 0.4765446202	 0.066412
H	-2.7588207204	-1.2973123818	-1.4950984081	 0.090438
H	-0.1370740618	-0.618109325	-2.1767323534	 0.286526
H	-1.7621758731	-3.5295932181	-0.8814921781	 0.108878
H	-0.1362859836	-2.8072182421	-0.9604069228	 0.117265
H	-2.2740318646	-2.200806169	 1.1627636005	 0.106581
H	 1.3581250978	-2.723268667	 3.2269730968	 0.192319
63.54	93.0742	130.7014	177.3185	199.1616	259.2596	300.1116	363.8211	402.3799	472.2846	494.1143	518.478	614.5404	625.8711	652.4193	682.1601	766.673	843.1908	911.1618	953.3893	1038.5612	1052.8382	1064.2554	1100.6429	1132.184	1166.8164	1181.5586	1190.7753	1216.1614	1238.4943	1262.1297	1273.2205	1324.2313	1350.7446	1380.7261	1441.5768	1478.8571	1481.2428	1487.5333	1514.1744	2237.6787	2994.1923	3022.321	3048.1862	3056.2304	3073.004	3077.2053	3120.3769	3134.03	3505.6055	3768.562
COC1C(O)CC1C#C	CO[C@H]1[C@@H](O)C[C@H]1C#C	
InChI=1S/C7H10O2/c1-3-5-4-6(8)7(5)9-2/h1,5-8H,4H2,2H3	InChI=1S/C7H10O2/c1-3-5-4-6(8)7(5)9-2/h1,5-8H,4H2,2H3/t5-,6+,7-/m1/s1
