17
gdb 44741	3.03941	1.70224	1.51004	3.963	71.67	-0.2362	-0.0025	0.2337	919.784	0.140758	-418.058058	-418.051439	-418.050495	-418.088754	27.704	
O	-0.0012627199	-0.0262931699	-0.2793389803	-0.405467
C	-0.0140268868	 1.1594431858	-0.0072663626	 0.417524
N	-1.1917891362	 1.8671656156	 0.2045857051	-0.324745
C	-1.2021630249	 3.3422460631	 0.151310401	-0.048041
C	-0.0368918599	 3.8113434656	 1.0397458942	-0.207056
C	 1.1174181317	 3.3741103754	 0.1212562393	-0.048041
N	 1.1489454416	 1.8993211166	 0.1742602022	-0.324744
C	 0.6012123315	 3.8407843025	-1.2392247986	-0.07158
C	-0.7343851676	 3.822442378	-1.2219179396	-0.07158
H	-1.997459068	 1.3690398116	-0.1431691371	 0.246139
H	-2.1871289111	 3.6941322714	 0.4614537596	 0.079636
H	-0.0502843176	 4.8963598727	 1.1564734694	 0.108308
H	-0.0175517067	 3.3240130031	 2.0157585551	 0.116357
H	 2.1000512107	 3.7530270683	 0.405905161	 0.079636
H	 1.9587143643	 1.4233872652	-0.1944239954	 0.246139
H	 1.2375638518	 4.0265406254	-2.0963522582	 0.103759
H	-1.3975888529	 3.9903502896	-2.0622059151	 0.103759
132.3176	280.2165	395.913	417.3302	430.7115	475.4244	505.0268	553.6458	631.0708	631.6892	753.6259	772.1525	806.4845	835.5198	878.9424	886.1033	918.095	947.3092	971.7044	990.1824	1045.1182	1050.9945	1106.4141	1132.9413	1160.7086	1200.6377	1277.7334	1297.7912	1302.2479	1333.9871	1355.8597	1402.2582	1438.6686	1441.585	1485.4294	1649.5663	1807.338	3080.0651	3100.8232	3104.7749	3141.121	3191.4754	3216.7765	3623.1391	3624.7088
O=C1NC2CC(N1)C=C2	O=C1N[C@H]2C[C@@H](N1)C=C2	
InChI=1S/C6H8N2O/c9-6-7-4-1-2-5(3-4)8-6/h1-2,4-5H,3H2,(H2,7,8,9)	InChI=1S/C6H8N2O/c9-6-7-4-1-2-5(3-4)8-6/h1-2,4-5H,3H2,(H2,7,8,9)/t4-,5+
