13
gdb 19005	5.55976	1.93276	1.69791	2.5124	57.08	-0.2407	-0.0009	0.2397	729.9449	0.096944	-398.554661	-398.549128	-398.548184	-398.584121	22.331	
O	-0.0573367637	-0.0295582475	 0.0312686468	-0.358812
C	-0.0208720774	 1.1719908438	-0.0432209477	 0.414463
N	-1.0950086125	 2.0558233867	-0.1513770904	-0.34376
C	-0.5072627285	 3.370772473	 0.0095095397	-0.035707
C	 0.7978345436	 3.3984824362	-0.8320860965	 0.072904
O	 1.4410601597	 4.2954413193	 0.1335591092	-0.310488
C	 0.7424091675	 3.310410198	 0.9566642705	 0.057701
C	 1.1668536953	 2.1312146097	 0.0071062048	-0.186517
H	-1.9985245932	 1.8042021072	 0.2203160218	 0.256197
H	-1.1817294365	 4.2228432955	 0.0193430621	 0.109618
H	 0.944424314	 3.5832903225	-1.8961474479	 0.110274
H	 0.8295306814	 3.3867884591	 2.0410246271	 0.108118
H	 2.1776513004	 1.7352356364	 0.0204863506	 0.106008
179.9884	389.6541	407.1453	432.298	539.1857	625.6436	689.5717	725.2784	755.1167	851.7184	870.666	887.1158	901.3927	933.4416	985.8113	1004.7095	1034.5722	1123.7468	1144.5233	1154.4334	1164.424	1175.5868	1220.1442	1260.6481	1290.4452	1331.0445	1391.4705	1863.7892	3116.7376	3125.1874	3168.6785	3182.4505	3626.9898
O=C1NC2C3OC2C13	O=C1N[C@@H]2[C@H]3O[C@@H]2[C@@H]13	
InChI=1S/C5H5NO2/c7-5-1-3-2(6-5)4(1)8-3/h1-4H,(H,6,7)	InChI=1S/C5H5NO2/c7-5-1-3-2(6-5)4(1)8-3/h1-4H,(H,6,7)/t1-,2+,3-,4+
