16
gdb 19110	4.6899	2.24915	2.20063	1.6878	65.93	-0.2212	0.068	0.2891	697.4452	0.13245	-342.67803	-342.672258	-342.671314	-342.707562	23.649	
C	-0.1276237871	 1.5473881385	 0.0007621477	-0.330499
N	 0.0255855437	 0.1024391312	 0.018185083	-0.068631
C	 1.0500839572	-0.5210707919	-0.8416790308	-0.050165
C	 2.4710914193	-0.1036816761	-0.340701647	-0.058504
C	 2.2330751733	-0.1112153251	 1.1286540369	-0.058505
C	 0.7272582735	-0.5312842574	 1.1512271169	-0.050166
C	 1.2233700227	-1.6575695351	 0.2031936012	 0.004739
N	 2.7076490135	-1.360036041	 0.4451492252	-0.180765
H	 0.8213917179	 2.0874261975	 0.1573176545	 0.103781
H	-0.5456759252	 1.8579194349	-0.9622581126	 0.122547
H	-0.8289135435	 1.8489708227	 0.785520235	 0.122547
H	 0.8485430864	-0.623449361	-1.9067442591	 0.078921
H	 3.2785243877	 0.4160695131	-0.8408640506	 0.097502
H	 2.8404861541	 0.4022015022	 1.8633012474	 0.097502
H	 0.199965541	-0.6439696814	 2.0971278276	 0.078921
H	 0.8510491856	-2.6757951312	 0.1376647146	 0.090775
202.7953	219.3577	285.6296	587.0007	598.277	674.2305	780.5249	787.2219	804.4803	825.9184	845.126	865.9119	890.3049	892.7342	933.7339	954.8153	972.0098	1031.3058	1066.9886	1102.4683	1137.0399	1151.7915	1166.2874	1169.5624	1204.7347	1220.1265	1235.3191	1244.2931	1279.8595	1290.3838	1342.4738	1443.0323	1484.1443	1503.1385	2965.2597	3064.7816	3103.0374	3130.4666	3130.525	3163.8179	3188.0495	3199.7387
CN1C2C3C4C1C2N34	CN1[C@H]2[C@H]3[C@H]4[C@@H]1[C@@H]2N34	
InChI=1S/C6H8N2/c1-7-2-4-3(7)6-5(2)8(4)6/h2-6H,1H3	InChI=1S/C6H8N2/c1-7-2-4-3(7)6-5(2)8(4)6/h2-6H,1H3/t2-,3+,4-,5+,6-,8?
