16
gdb 62283	3.34966	1.5451	1.33952	5.2828	71.77	-0.2588	0.0163	0.2751	964.9452	0.125967	-396.869319	-396.861967	-396.861023	-396.900839	28.933	
N	-0.0272830721	 1.485424394	 0.0553953243	-0.577473
C	-0.0296356285	 0.045148795	-0.0721670605	 0.152955
C	 0.7878693133	-0.5240463492	 1.0072378215	 0.28769
N	 1.4644152151	-0.9487739792	 1.8417261577	-0.331895
C	-1.3762075206	-0.6608233297	-0.169095348	-0.064936
C	-1.7653353757	-0.7437883641	-1.6102292617	-0.053051
C	-0.6708737757	-0.1312731216	-2.4666948182	-0.266105
C	 0.2670743901	-0.7344911989	-1.4115291614	-0.047126
N	-0.8327663447	-1.7692561846	-1.0267486594	-0.146165
H	 0.9155391044	 1.8598196432	 0.0756149403	 0.24472
H	-0.5314017886	 1.9166423374	-0.7105423458	 0.241491
H	-2.0690520304	-0.8521210578	 0.6411001288	 0.118297
H	-2.7756638144	-1.0078492614	-1.9005932877	 0.112376
H	-0.5792968004	-0.6674320169	-3.4140604575	 0.128311
H	-0.6464091234	 0.9472918379	-2.6565328427	 0.094755
H	 1.2739545817	-1.0735660742	-1.6430641197	 0.106155
141.9152	155.9601	225.1759	290.524	315.3687	448.7151	501.5016	504.6058	547.2615	664.0575	755.4657	778.7804	788.2382	816.4285	837.7935	885.4737	940.1807	965.1944	1002.4083	1027.2986	1040.1147	1063.067	1071.9862	1117.8409	1138.0079	1188.9176	1223.296	1241.8816	1258.4718	1300.3489	1356.7336	1380.6475	1498.7333	1648.5724	2362.5723	3040.5185	3110.1498	3153.4248	3185.5179	3201.9973	3512.4805	3605.5405
NC1(C#N)C2C3CC1N23	N[C@@]1(C#N)[C@H]2[C@H]3C[C@@H]1N23	
InChI=1S/C6H7N3/c7-2-6(8)4-1-3-5(6)9(3)4/h3-5H,1,8H2	InChI=1S/C6H7N3/c7-2-6(8)4-1-3-5(6)9(3)4/h3-5H,1,8H2/t3-,4+,5-,6-,9?/m1/s1
