18
gdb 8879	3.92567	1.14314	0.94481	2.4122	64.94	-0.2585	-0.0321	0.2263	1235.5239	0.151318	-422.095078	-422.085646	-422.084702	-422.130083	33.171	
C	-0.0299495645	 1.5602513095	-0.0300588349	-0.379521
C	-0.0919761336	 0.0356760758	-0.1040520563	-0.28695
C	-1.5022270405	-0.5137234327	-0.1278819182	 0.356891
O	-2.4837957601	 0.1966229388	-0.2136943937	-0.325258
C	-1.7018851907	-2.0271083376	-0.0605712782	 0.019599
O	-3.0749573669	-2.3251145352	 0.0371747483	-0.446858
C	-1.136566109	-2.7407034149	-1.3085116418	-0.064503
O	-1.5020531647	-4.0986992206	-1.2920079216	-0.418447
H	 1.0083626198	 1.9018223909	-0.0316536047	 0.117282
H	-0.5466468899	 2.0126229518	-0.8796174985	 0.137928
H	-0.5130650444	 1.927308944	 0.8791711163	 0.134084
H	 0.4194945307	-0.3330806756	-1.0047061707	 0.139587
H	 0.4411657635	-0.4318472	 0.7343550747	 0.130455
H	-1.1830249723	-2.4213007263	 0.8260166325	 0.098512
H	-3.5275288451	-1.4762639843	-0.1048091741	 0.296174
H	-1.5141757188	-2.2283321159	-2.2099569942	 0.089515
H	-0.0426655446	-2.6965045528	-1.3224784298	 0.10664
H	-2.446986769	-4.1060124347	-1.0891477251	 0.29487
40.1182	74.2691	118.4151	153.8766	200.9608	235.4873	320.8039	354.7217	388.8411	455.4091	514.6033	517.742	575.9028	684.4861	775.3137	849.4661	909.6284	988.4406	1027.6364	1035.431	1087.0877	1113.5587	1122.1577	1166.4706	1229.8504	1242.679	1284.8339	1327.3979	1375.7549	1387.3551	1415.3598	1433.8214	1437.99	1447.9877	1494.3259	1499.385	1501.3503	1786.4463	2958.3495	3002.1663	3018.9797	3049.5899	3054.9438	3076.7292	3126.3262	3132.5072	3658.4412	3767.7158
CCC(=O)C(O)CO	CCC(=O)[C@@H](O)CO	
InChI=1S/C5H10O3/c1-2-4(7)5(8)3-6/h5-6,8H,2-3H2,1H3	InChI=1S/C5H10O3/c1-2-4(7)5(8)3-6/h5-6,8H,2-3H2,1H3/t5-/m0/s1
