21
gdb 96514	2.20013	1.64822	1.09872	1.9583	78.45	-0.2339	-0.0197	0.2142	1168.2134	0.183105	-424.256275	-424.247397	-424.246453	-424.289872	33.907	
C	 0.7056228564	 1.416824662	-0.3785364188	-0.397968
C	-0.0937657582	 0.2323369597	 0.1628490921	 0.021518
O	-0.4702152899	-0.7042585748	-0.8354379641	-0.25792
C	 0.5562625948	-1.5546026706	-1.3387369046	-0.083224
C	 0.5553836917	-2.9158347564	-0.6409606496	-0.184838
C	 0.9910009528	-2.8693173871	 0.827617601	-0.20444
C	 0.1920017687	-1.8672912268	 1.6929496931	-0.280717
C	 0.5722322128	-0.426358309	 1.3855819629	 0.344728
O	 1.3511477898	 0.1899639937	 2.0769229454	-0.309356
H	 1.6720611954	 1.1015698536	-0.7822371614	 0.122121
H	 0.140357616	 1.9129326252	-1.1711406475	 0.119086
H	 0.9045912071	 2.1261728537	 0.4268153501	 0.140243
H	-1.055465692	 0.6098722957	 0.5427134087	 0.111473
H	 0.3509917609	-1.6843600746	-2.4070319747	 0.108232
H	 1.5432977353	-1.0776142192	-1.2545335238	 0.098936
H	-0.4589148361	-3.3274345212	-0.7135266922	 0.107682
H	 1.2147067652	-3.5948467096	-1.1959723258	 0.09619
H	 0.8797680502	-3.8665470028	 1.2664009371	 0.105446
H	 2.0577891936	-2.6204874749	 0.8958725754	 0.111438
H	-0.8807584106	-2.015875706	 1.5250168282	 0.113971
H	 0.415810916	-2.0333166905	 2.7497637286	 0.117398
56.3362	145.2689	181.4805	208.5999	269.7774	300.0485	329.0486	339.6108	457.1319	491.256	513.7829	533.7675	635.0914	784.831	808.1544	845.1092	853.7638	920.5019	950.3807	966.6243	1000.6881	1041.3762	1083.3572	1094.4168	1120.9705	1146.0134	1166.2744	1228.6284	1236.7421	1288.827	1309.013	1331.8279	1346.6303	1359.2743	1374.916	1388.9176	1397.8468	1408.4815	1467.1212	1476.9636	1483.7792	1491.5294	1493.8033	1501.7254	1803.6229	2998.3463	3005.7322	3024.2923	3027.4114	3043.7878	3053.9347	3064.6731	3066.9463	3078.0503	3108.8896	3123.6889	3144.5903
CC1OCCCCC1=O	C[C@H]1OCCCCC1=O	
InChI=1S/C7H12O2/c1-6-7(8)4-2-3-5-9-6/h6H,2-5H2,1H3	InChI=1S/C7H12O2/c1-6-7(8)4-2-3-5-9-6/h6H,2-5H2,1H3/t6-/m1/s1
