23
gdb 75493	2.10097	1.74616	1.1975	0.1883	91.6	-0.2208	0.0301	0.2509	1170.3541	0.206805	-351.171702	-351.162735	-351.16179	-351.204641	35.72	
C	-0.1030026379	 1.4994738505	 0.0409324291	-0.485947
C	-0.0233332457	-0.003969787	-0.0054494494	 0.248752
C	-0.0248872849	-0.6853173951	-1.155714042	-0.149508
C	 0.086509134	-2.1892403284	-1.2261207414	-0.255264
C	 0.9849020356	-2.7294527474	-0.0989772102	-0.229966
C	 0.6011263825	-2.1408465528	 1.2559243892	-0.061176
C	 1.4235001351	-1.0324851941	 1.8768257602	-0.32936
C	 0.0499084301	-0.7329034937	 1.3045762164	 0.281724
C	-1.0673653633	-0.4348260574	 2.2917383987	-0.471394
H	 0.7386170267	 1.9217975001	 0.6047233165	 0.121397
H	-0.0907049672	 1.9284697114	-0.9647532943	 0.116215
H	-1.0162970229	 1.844161919	 0.5411311791	 0.122771
H	-0.0954312657	-0.1411097504	-2.0952831272	 0.073551
H	-0.9123544022	-2.6450134325	-1.1566696805	 0.104814
H	 0.4850660526	-2.4920075612	-2.200879567	 0.094713
H	 0.9296396902	-3.8226040968	-0.0609444325	 0.092169
H	 2.0256258365	-2.4798546039	-0.3351659726	 0.09909
H	 0.1497565899	-2.8397297743	 1.9545417651	 0.075817
H	 1.5430200386	-1.0139294064	 2.9559229578	 0.10156
H	 2.2913733047	-0.6883806161	 1.3226312312	 0.106761
H	-1.0599467891	 0.6131236914	 2.6110217343	 0.115991
H	-2.0498526139	-0.6433794734	 1.8527671587	 0.116056
H	-0.9639650337	-1.0516855514	 3.190116231	 0.111234
104.9989	173.305	196.349	233.5693	238.63	284.4775	303.6416	379.5517	418.8826	458.8753	508.2852	591.7055	641.6046	650.407	776.5276	836.2048	843.3099	891.0106	905.5217	928.5582	947.7262	979.2578	1011.9301	1052.7171	1063.886	1070.1466	1088.144	1111.3805	1116.4644	1135.8659	1158.3195	1220.0528	1232.7081	1266.3337	1302.1282	1347.99	1370.8324	1393.2684	1405.2169	1412.2044	1414.6697	1474.9969	1478.0447	1485.985	1488.3362	1494.1634	1497.6233	1506.9232	1723.9343	2997.0494	3017.7221	3024.5185	3030.4042	3057.0638	3065.0818	3071.1638	3087.3271	3097.1402	3108.2247	3116.4663	3140.415	3143.922	3203.7933
CC1=CCCC2CC12C	CC1=CCC[C@H]2C[C@@]12C	
InChI=1S/C9H14/c1-7-4-3-5-8-6-9(7,8)2/h4,8H,3,5-6H2,1-2H3	InChI=1S/C9H14/c1-7-4-3-5-8-6-9(7,8)2/h4,8H,3,5-6H2,1-2H3/t8-,9-/m0/s1
