20
gdb 107229	2.8711	1.41284	1.09959	1.3723	78.46	-0.1992	0.0559	0.2551	1153.2685	0.17011	-403.059035	-403.050103	-403.049159	-403.092449	34.361	
C	-0.0169311029	 1.5610630991	 0.1600518086	-0.498247
C	 0.0207888405	 0.064456875	 0.0328072775	 0.294455
C	-0.9219439596	-0.8674113968	 0.7499648863	-0.340032
C	 0.5613310947	-0.9808937795	 1.00302408	-0.110111
C	 1.3032397827	-1.6702763613	-0.1745711766	-0.108203
N	 0.3052836993	-2.0810158752	-1.207606319	-0.391314
C	 0.7815064701	-0.6778359104	-1.1282717743	 0.280135
C	 1.431299554	 0.0006488366	-2.3029563194	-0.222568
O	 2.228963894	-0.9035305531	-3.0622867426	-0.4096
H	 0.9715588248	 2.0122088859	 0.0122936243	 0.115026
H	-0.7008817285	 2.0148796729	-0.5683162237	 0.117502
H	-0.3629748976	 1.8518217776	 1.1572338638	 0.120023
H	-1.4766600623	-0.3978887019	 1.5575443686	 0.100398
H	-1.4489811709	-1.6499624414	 0.2199057819	 0.138565
H	 1.0066773871	-0.8222488572	 1.977121331	 0.084246
H	 2.2743272444	-2.1456698733	-0.1283139603	 0.097828
H	 0.8621605967	-2.5066342891	-1.9506649742	 0.217942
H	 0.6680360712	 0.479169271	-2.9349128925	 0.101471
H	 2.0979550892	 0.7971271111	-1.9515861083	 0.118807
H	 1.693881143	-1.23367415	-3.7888900612	 0.293678
72.5463	151.8105	164.5846	207.3519	229.5883	284.8446	307.0215	394.4539	442.8365	461.1878	538.3546	629.993	672.956	771.8814	834.4242	851.3944	870.3886	880.2077	921.9444	959.8296	967.916	986.6444	1009.6749	1026.3851	1059.5432	1080.8597	1095.9783	1113.4017	1168.2646	1202.2557	1212.5227	1248.626	1277.0615	1326.1837	1363.3514	1386.8604	1409.376	1420.4198	1439.0854	1472.1179	1486.7218	1497.5528	1503.2978	2989.3884	3014.9978	3051.5285	3069.3726	3093.3033	3131.6989	3187.2748	3201.773	3229.7211	3454.6962	3844.2729
CC12CC1C1NC21CO	C[C@]12C[C@H]1[C@H]1N[C@@]21CO	
InChI=1S/C7H11NO/c1-6-2-4(6)5-7(6,3-9)8-5/h4-5,8-9H,2-3H2,1H3	InChI=1S/C7H11NO/c1-6-2-4(6)5-7(6,3-9)8-5/h4-5,8-9H,2-3H2,1H3/t4-,5+,6-,7+/m0/s1
