12
gdb 5175	5.5239	1.44104	1.34352	3.6551	57.03	-0.253	-0.0111	0.2419	884.7173	0.085155	-414.703548	-414.6968	-414.695856	-414.736104	23.204	
O	-0.0139767989	 0.4988911757	 1.1633185461	-0.278925
C	-0.0023561039	 1.3260095409	 0.2893143525	 0.136408
N	 1.123544951	 1.7383681308	-0.3944879768	-0.424726
C	 2.3882076218	 1.2081090653	-0.1702577707	 0.385824
C	 3.5187507168	 1.6735500844	 0.4121715637	-0.145314
N	 4.5107233032	 0.7080289856	 0.3262365352	-0.256431
C	 3.9350324676	-0.2774356993	-0.2838540348	 0.092448
O	 2.6505161781	-0.0605536236	-0.6311443537	-0.151055
H	-0.9027521312	 1.8618940009	-0.0696407661	 0.085694
H	 1.0027215863	 2.4149754061	-1.1339096476	 0.265261
H	 3.6844146471	 2.6275359587	 0.8862260281	 0.13368
H	 4.3508588021	-1.2395620753	-0.539389126	 0.157136
22.2066	117.5004	194.8897	313.9159	419.5812	489.3689	629.7423	652.5131	671.3919	848.215	862.3932	901.8894	936.2886	981.2514	1034.3688	1110.1841	1131.1665	1148.9548	1245.3934	1281.7277	1347.8258	1431.2337	1476.9943	1542.1791	1660.0132	1835.8581	2947.581	3269.3287	3275.5247	3599.1495
O=CNC1=CN=CO1	O=CNc1cnco1	
InChI=1S/C4H4N2O2/c7-2-6-4-1-5-3-8-4/h1-3H,(H,6,7)	InChI=1S/C4H4N2O2/c7-2-6-4-1-5-3-8-4/h1-3H,(H,6,7)
