18
gdb 9292	3.08973	1.28236	1.08615	4.7594	65.84	-0.2664	0.0158	0.2821	1151.2266	0.151017	-422.089784	-422.080308	-422.079364	-422.124809	32.232	
C	 0.3468221555	 0.862209177	-0.2196012951	-0.237578
O	-0.0384896255	-0.4406547231	 0.1595409119	-0.252495
C	-1.4195580933	-0.735283472	 0.0209659768	 0.137597
C	-1.8787787513	-0.8065156166	-1.4372448377	-0.406253
C	-1.6269959369	-2.0542549215	 0.7634247381	-0.104347
O	-0.9723655334	-3.1396441606	 0.1025707906	-0.18285
C	 0.3043011553	-3.4044563584	 0.4577104191	 0.182795
O	 0.9618137411	-4.2303372874	-0.0994964387	-0.280594
H	 1.3945530594	 0.9794051701	 0.0668822722	 0.134476
H	 0.2610773289	 1.0301106872	-1.3015061658	 0.116632
H	-0.2509011906	 1.6267943827	 0.300587018	 0.105491
H	-2.0122540888	 0.0296388233	 0.554077729	 0.068738
H	-1.7423950558	 0.151709079	-1.9442246767	 0.119915
H	-1.3180782098	-1.5743536477	-1.9749075862	 0.149828
H	-2.9434089119	-1.0565406682	-1.4848484503	 0.119543
H	-1.2558897846	-1.9555870616	 1.7902868447	 0.117995
H	-2.6882964798	-2.3123984747	 0.7953613898	 0.123277
H	 0.6474094416	-2.7943032074	 1.3118217702	 0.08783
61.719	73.8693	88.1591	169.107	191.7811	225.5379	253.5523	296.4164	343.696	406.3753	453.3314	594.9138	697.2573	808.5817	909.8273	928.5115	1008.544	1038.4511	1071.6554	1116.7898	1127.5116	1165.6957	1180.4262	1181.9951	1227.9364	1317.5889	1365.9946	1377.1052	1394.4393	1413.6677	1430.1751	1477.2593	1482.663	1490.2723	1495.2677	1506.296	1512.6203	1866.3006	2947.3947	2983.0375	2985.2835	3040.9367	3042.1378	3051.8331	3110.2211	3117.1563	3119.1249	3140.3958
COC(C)COC=O	CO[C@@H](C)COC=O	
InChI=1S/C5H10O3/c1-5(7-2)3-8-4-6/h4-5H,3H2,1-2H3	InChI=1S/C5H10O3/c1-5(7-2)3-8-4-6/h4-5H,3H2,1-2H3/t5-/m0/s1
