17
gdb 81273	2.70168	1.49205	1.28744	1.7212	68.05	-0.2372	-0.0297	0.2075	1040.6052	0.135497	-458.946618	-458.938609	-458.937665	-458.979024	30.581	
C	-0.1065540423	 1.5136018963	 0.0321489301	-0.43162
C	-0.0336053594	-0.0050332419	 0.0153445022	 0.013683
C	 0.8586167861	-0.6253471848	-1.0891535183	 0.042451
O	 2.0395085698	-0.370916128	-0.257220678	-0.301689
C	 1.1267664726	-0.6194872736	 0.8637274987	-0.065844
C	 0.8652078169	-2.1082295014	 0.6535470762	 0.412108
O	 0.6821051667	-3.0096990376	 1.4252800564	-0.33659
C	 0.7360609014	-2.1491682519	-0.8929793014	 0.025658
O	-0.4957938187	-2.6936227582	-1.3026856858	-0.441555
H	 0.8880862312	 1.9527177989	-0.0787391707	 0.139551
H	-0.7362980844	 1.874476556	-0.7878683229	 0.125229
H	-0.5423661578	 1.8734308659	 0.9694352268	 0.123763
H	-1.0181577435	-0.4663121568	 0.1347601308	 0.099138
H	 0.9248086364	-0.2271605152	-2.1011737771	 0.092835
H	 1.4527200343	-0.2463465065	 1.8326367796	 0.102303
H	 1.5938598277	-2.657990161	-1.354367342	 0.10215
H	-0.657644287	-3.4720753102	-0.7550154646	 0.298429
102.678	170.8878	222.64	238.6539	260.9933	312.2486	338.4335	467.7919	522.5481	544.9174	639.9057	723.657	787.1665	810.525	857.0358	882.9341	935.5862	966.3112	981.6017	1053.5231	1070.8351	1079.0102	1129.5764	1160.1559	1163.4815	1202.2051	1224.9116	1238.9583	1277.134	1297.9198	1329.0464	1390.7748	1397.8328	1407.7397	1493.9364	1503.5383	1876.0315	3013.1399	3038.9995	3073.9472	3102.4496	3126.5795	3129.1944	3150.663	3778.1288
CC1C2OC1C(=O)C2O	C[C@H]1[C@H]2O[C@@H]1C(=O)[C@H]2O	
InChI=1S/C6H8O3/c1-2-5-3(7)4(8)6(2)9-5/h2-3,5-7H,1H3	InChI=1S/C6H8O3/c1-2-5-3(7)4(8)6(2)9-5/h2-3,5-7H,1H3/t2-,3+,5+,6-/m0/s1
