17
gdb 53361	3.268	0.91522	0.83806	4.1262	77.32	-0.2467	0.0355	0.2821	1434.2209	0.137166	-418.033119	-418.024063	-418.023119	-418.069114	31.943	
C	-0.162080155	 1.4213928131	 0.0934502193	-0.496909
C	-0.057746016	-0.0290355269	 0.030525335	 0.016068
C	 0.0268519127	-1.2295821833	-0.0129304037	 0.140598
C	 0.1090751953	-2.6896365314	-0.0963900112	-0.176789
C	 0.7752744937	-3.3452622842	 1.1509146081	-0.168825
N	-0.3813939291	-3.6161898778	 1.9832729418	-0.332339
C	-1.5342720351	-3.7446378751	 1.2231539252	 0.432372
O	-2.6166294402	-4.1283911676	 1.6011572219	-0.405514
N	-1.1985897572	-3.3517977361	-0.0747868485	-0.325907
H	 0.5606623186	 1.8394199036	 0.8025419706	 0.152577
H	 0.0279639377	 1.8778618765	-0.8839780239	 0.150936
H	-1.161421714	 1.730910183	 0.4179386863	 0.155707
H	 0.6605175128	-2.9688304974	-1.0004600404	 0.113854
H	 1.303938542	-4.2608981523	 0.8504927798	 0.109051
H	 1.4833786173	-2.6663678866	 1.6301388759	 0.126528
H	-0.3115643486	-4.1811098239	 2.8139358242	 0.254539
H	-1.950361715	-2.9589491936	-0.6212061304	 0.254053
14.5505	63.8845	100.6258	186.7197	206.2234	305.7445	330.2591	432.1489	453.9986	509.423	533.9897	594.898	718.1756	719.8851	770.8316	812.1433	926.8732	971.3464	1025.4148	1051.3438	1054.1796	1071.9153	1113.9824	1164.8896	1223.7135	1241.8427	1275.7067	1358.3409	1376.2484	1404.978	1414.2472	1437.8825	1476.7763	1477.4089	1525.1371	1853.9098	2368.1385	3000.1027	3029.4766	3044.2114	3091.4144	3092.5823	3101.652	3629.1392	3652.6578
CC#CC1CNC(=O)N1	CC#C[C@H]1CNC(=O)N1	
InChI=1S/C6H8N2O/c1-2-3-5-4-7-6(9)8-5/h5H,4H2,1H3,(H2,7,8,9)	InChI=1S/C6H8N2O/c1-2-3-5-4-7-6(9)8-5/h5H,4H2,1H3,(H2,7,8,9)/t5-/m0/s1
