21
gdb 122099	3.02458	0.7321	0.60858	1.4745	82.98	-0.2505	0.0358	0.2863	1852.2145	0.178352	-424.166054	-424.154822	-424.153878	-424.203408	38.648	
C	 0.2682346974	 0.4537108792	 1.5774455591	-0.227606
O	 0.2008505419	-0.8221614758	 0.9899099026	-0.23295
C	 0.789244594	-0.8661488069	-0.292153565	-0.061322
C	 0.6980091629	-2.2999693694	-0.8001893142	-0.212384
C	 1.2173987021	-2.446550991	-2.2347888313	-0.079564
O	 2.5801608162	-2.0469930213	-2.2373545381	-0.233098
C	 3.1464973858	-1.9376648386	-3.5268267434	-0.237794
C	 1.0411872624	-3.8194465026	-2.7301130069	 0.335278
C	 0.8996009941	-4.9446795633	-3.1285912423	-0.451987
H	 1.3090172202	 0.7924982201	 1.7037332214	 0.103402
H	-0.2653405603	 1.2098679478	 0.9788346666	 0.100778
H	-0.2031204914	 0.3874951249	 2.5612124312	 0.125536
H	 0.2611333118	-0.1809967023	-0.9803660485	 0.077135
H	 1.8390229924	-0.5403584554	-0.2527072025	 0.10657
H	 1.2723836698	-2.9615773663	-0.1450121524	 0.125464
H	-0.3448765638	-2.6294806453	-0.7672904129	 0.119041
H	 0.6432450839	-1.7705476929	-2.894295592	 0.090451
H	 3.1463730329	-2.9006407852	-4.0544754095	 0.121939
H	 2.6073565771	-1.2010703581	-4.1429087612	 0.103401
H	 4.1771279874	-1.6015961442	-3.3931430747	 0.128844
H	 0.7717468432	-5.9383235536	-3.4815430759	 0.198867
64.8242	68.2153	85.5455	114.4397	134.6365	165.8125	208.9871	227.2531	259.8415	274.6984	323.5359	404.8962	476.5405	575.2374	596.0638	626.8955	674.699	787.1975	881.6956	956.773	1006.5427	1055.0926	1077.9483	1125.1031	1146.3824	1165.7946	1182.1242	1184.4482	1215.6063	1225.971	1250.4743	1288.2455	1307.0244	1364.5559	1369.5567	1425.7926	1477.0915	1481.0991	1481.9666	1484.2301	1484.3706	1505.5986	1510.6925	1534.1832	2230.6749	2935.0555	2941.143	2966.6744	2982.2725	3008.0563	3012.3934	3045.8579	3061.8945	3110.2874	3111.7023	3121.3797	3502.2774
COCCC(OC)C#C	COCC[C@@H](OC)C#C	
InChI=1S/C7H12O2/c1-4-7(9-3)5-6-8-2/h1,7H,5-6H2,2-3H3	InChI=1S/C7H12O2/c1-4-7(9-3)5-6-8-2/h1,7H,5-6H2,2-3H3/t7-/m0/s1
