17
gdb 70005	3.05819	1.74223	1.61571	2.4375	65.5	-0.257	0.0713	0.3284	888.1676	0.137737	-458.931461	-458.924797	-458.923853	-458.962069	27.96	
O	-0.1784035589	 1.3615175949	 0.1147118288	-0.467175
C	-0.0751300932	-0.0210218955	-0.0088380952	 0.394724
C	-0.5227330578	-0.7084627392	-1.2782298743	-0.369353
C	-1.30816345	-0.885435183	 0.0023451555	-0.102587
C	-0.8661070337	-2.0015315885	 0.9684586723	 0.173554
O	 0.1069777778	-2.8517410193	 0.345420347	-0.277691
C	 1.3350310007	-2.1017129834	 0.4299251696	-0.10573
C	 0.8327875895	-0.7689730808	 1.0039004176	-0.040136
O	-0.1294517853	-1.2930520518	 1.9503428241	-0.246211
H	 0.4755596171	 1.7659317181	-0.4653419256	 0.285403
H	-0.9722656471	-0.0507385488	-2.0162162682	 0.114612
H	 0.0107560791	-1.5583461262	-1.6849077539	 0.133381
H	-2.2986655491	-0.4583278261	 0.1035608812	 0.104249
H	-1.6494027229	-2.6078292848	 1.4198455072	 0.096711
H	 2.02627032	-2.5962719519	 1.1205109555	 0.111593
H	 1.7982184694	-2.0207100206	-0.5579490873	 0.103368
H	 1.5635695546	-0.1381707331	 1.5054070957	 0.09129
193.3786	293.4976	315.1834	326.8287	389.104	437.494	519.2703	616.0452	628.6936	686.6115	780.1968	798.4731	864.3165	884.8261	895.6108	940.087	945.0487	966.7551	974.9514	1007.3414	1014.1711	1036.7776	1066.8824	1074.3511	1114.5834	1186.7982	1218.4054	1233.4686	1254.6151	1285.2121	1312.1069	1313.6541	1333.1942	1367.6639	1400.8007	1481.5639	1519.8867	3040.6096	3088.2402	3133.7376	3146.2846	3153.9085	3190.8376	3228.6502	3799.3344
OC12CC1C1OCC2O1	O[C@]12C[C@H]1[C@H]1OC[C@@H]2O1	
InChI=1S/C6H8O3/c7-6-1-3(6)5-8-2-4(6)9-5/h3-5,7H,1-2H2	InChI=1S/C6H8O3/c7-6-1-3(6)5-8-2-4(6)9-5/h3-5,7H,1-2H2/t3-,4-,5-,6+/m0/s1
