17
gdb 6344	5.34288	1.1066	0.92998	0.7294	68.76	-0.2291	-0.0011	0.2281	1234.4373	0.142265	-397.240259	-397.231256	-397.230312	-397.274946	32.114	
C	 0.0522898515	 1.4832324135	-0.3048627197	-0.371407
C	-0.2751046479	 0.1912814696	 0.4395810682	-0.308003
C	-1.5045322068	-0.516070668	-0.1220508459	 0.4521
O	-2.055310292	-0.1535522829	-1.1509292029	-0.380131
N	-1.9138586563	-1.5904186859	 0.6251215816	-0.345669
C	-3.0037349219	-2.4657818916	 0.4236576527	 0.423834
N	-3.6308136811	-2.3334855775	-0.7835264849	-0.551366
N	-3.2272931457	-3.291393889	 1.3751968179	-0.562244
H	 0.9586124049	 1.9387141729	 0.1031802912	 0.112469
H	 0.2060980133	 1.2891976448	-1.3685014945	 0.139047
H	-0.765260576	 2.2034700157	-0.2189040296	 0.131912
H	 0.5666309438	-0.5118483874	 0.384880656	 0.134024
H	-0.4359945193	 0.3822178084	 1.5080960733	 0.124294
H	-1.4333749645	-1.7922056143	 1.4894378673	 0.264553
H	-3.4304381446	-1.4916767919	-1.311584488	 0.280831
H	-4.5397325124	-2.7544150803	-0.8708981467	 0.249788
H	-4.0097962851	-3.9035972861	 1.1534541441	 0.205969
25.0966	95.6405	108.1048	174.9549	207.0499	328.5669	356.5163	392.5432	437.2498	537.8185	561.5734	593.4153	669.3545	693.6522	727.7626	791.9648	816.0974	929.643	943.2354	1029.1835	1094.7404	1100.1259	1134.7182	1143.3517	1214.5132	1286.987	1369.194	1415.7004	1447.0283	1463.8273	1492.4065	1495.9677	1502.4878	1620.005	1740.0563	1769.5494	3025.494	3054.6908	3058.2441	3125.059	3135.706	3504.6493	3509.0089	3626.3423	3697.7697
CCC(=O)NC(N)=N	CCC(=O)NC(=N)N	
InChI=1S/C4H9N3O/c1-2-3(8)7-4(5)6/h2H2,1H3,(H4,5,6,7,8)	InChI=1S/C4H9N3O/c1-2-3(8)7-4(5)6/h2H2,1H3,(H4,5,6,7,8)
