22
gdb 22085	3.44261	0.99183	0.94326	0.9186	85.46	-0.2368	0.0145	0.2513	1367.28	0.19319	-404.338791	-404.329248	-404.328304	-404.372622	37.176	
C	 0.4488998439	 1.3141474982	 0.2563170722	-0.417631
C	-0.0646803134	-0.1134170657	-0.0046250198	 0.291294
C	-1.5937394719	-0.1087676313	-0.0844120877	-0.439035
C	 0.5872837529	-0.69815547	-1.2886137577	-0.241885
C	 1.990699507	-1.1794890711	-0.8649378653	-0.305226
C	 1.8648731119	-1.4163669203	 0.6254893922	 0.408491
C	 0.4678170385	-1.0768226765	 1.0884937016	-0.312411
N	 2.7674585678	-1.8009481272	 1.435151545	-0.233015
O	 3.9792363278	-2.0496234521	 0.7565752023	-0.39856
H	 1.5396946768	 1.3463723448	 0.3453735406	 0.120513
H	 0.1590045929	 1.9883321874	-0.5569419092	 0.110681
H	 0.0321408781	 1.7138564615	 1.1872206819	 0.113001
H	-1.943434138	 0.535827352	-0.8986794377	 0.111448
H	-1.9844740121	-1.1163172034	-0.2640616353	 0.108672
H	-2.0391258981	 0.26330372	 0.8449752469	 0.112002
H	-0.0074678927	-1.5507433744	-1.6371038531	 0.0957
H	 0.6147190396	 0.0285382803	-2.1060941785	 0.095564
H	 2.3203639024	-2.0829731806	-1.3867360061	 0.125729
H	 2.7686537455	-0.4294527329	-1.0471232019	 0.128995
H	 0.4488800489	-0.6599099202	 2.098487578	 0.113554
H	-0.1441996669	-1.9897006387	 1.1010294993	 0.108378
H	 4.5621217492	-2.31157245	 1.4767223622	 0.303738
64.8469	163.206	199.6884	230.1101	257.141	278.5775	306.0217	335.2667	379.0394	382.1119	405.7053	481.9199	511.9773	587.1765	672.6746	744.9893	795.9535	840.563	907.6947	914.5931	951.9479	963.5494	973.1394	982.1942	1003.7278	1053.3925	1084.06	1164.7415	1185.0818	1214.6739	1230.2357	1261.2953	1284.4741	1293.1217	1319.0181	1351.5373	1400.1025	1403.7867	1424.2934	1466.3284	1471.1171	1483.685	1488.8266	1503.7851	1506.8102	1508.2746	1754.7354	3010.0925	3022.3557	3027.9274	3036.5093	3048.1717	3078.7947	3088.9412	3089.8736	3093.5759	3096.2299	3099.1592	3099.6145	3821.9674
CC1(C)CCC(C1)=NO	CC1(C)CCC(=NO)C1	
InChI=1S/C7H13NO/c1-7(2)4-3-6(5-7)8-9/h9H,3-5H2,1-2H3	InChI=1S/C7H13NO/c1-7(2)4-3-6(5-7)8-9/h9H,3-5H2,1-2H3
