14
gdb 7041	7.11733	0.89431	0.79845	5.4332	71.8	-0.2572	-0.0416	0.2156	1367.0605	0.106083	-378.728122	-378.719318	-378.718373	-378.763669	29.172	
C	-0.209496058	 1.4345288946	 0.0048003684	-0.504029
C	-0.1971776662	-0.0175234461	-0.0599078635	 0.160001
C	-0.2172358469	-1.2210658738	-0.1183759534	 0.024187
C	-0.1973550655	-2.6566293605	-0.1811649576	 0.188891
N	-1.2533884583	-3.3353904065	-0.3804052329	-0.493466
N	 1.1140816381	-3.1738219086	 0.0037708169	-0.341315
C	 1.4820795618	-4.4945664527	 0.0016614175	 0.166823
O	 0.7397548391	-5.4373493937	-0.1597525262	-0.299381
H	 0.4349638062	 1.8695085396	-0.7667363584	 0.158071
H	-1.2221998809	 1.8229422078	-0.1440617932	 0.166108
H	 0.1476877289	 1.7892372025	 0.977638561	 0.158138
H	-1.0334022957	-4.3325763403	-0.3912071211	 0.257484
H	 1.843426156	-2.4922676392	 0.1511453366	 0.26322
H	 2.5701487514	-4.6090915132	 0.1695261357	 0.095267
14.4721	65.9925	89.2943	174.9498	249.0665	255.7863	309.169	380.629	403.1863	574.6934	594.3669	650.4273	710.7376	916.443	953.8304	956.6188	1024.9978	1049.9098	1051.1318	1158.9727	1183.0802	1352.443	1411.9754	1438.6623	1472.5511	1473.9565	1495.7285	1703.4392	1805.0558	2363.5787	2951.1751	3032.0953	3094.0068	3100.6921	3481.2539	3620.8894
CC#CC(=N)NC=O	CC#CC(=N)NC=O	
InChI=1S/C5H6N2O/c1-2-3-5(6)7-4-8/h4H,1H3,(H2,6,7,8)	InChI=1S/C5H6N2O/c1-2-3-5(6)7-4-8/h4H,1H3,(H2,6,7,8)
