21
gdb 20017	4.28759	1.21415	1.09125	1.2152	79.23	-0.2085	0.0912	0.2997	1187.8828	0.18827	-329.079133	-329.070408	-329.069464	-329.112867	32.617	
C	-0.4563609077	-3.3920651015	 1.4816306871	-0.380303
C	-0.4885542889	-1.8649965824	 1.6171772491	-0.199276
C	-1.5721330195	-1.2456966615	 0.7567600145	 0.03333
C	-2.9423066325	-1.0089244535	 1.2963730265	-0.261293
N	-2.076447151	 0.1150145165	 0.9570215343	-0.104798
C	-1.512052234	 0.962860397	 1.9789545607	 0.070606
C	-2.3724022876	 1.9891746902	 2.6536276222	-0.278903
C	-1.7650565919	 0.8673546951	 3.4699166106	-0.278604
H	 0.3495262709	-3.8256979317	 2.0815192755	 0.11257
H	-1.4008445474	-3.8365790197	 1.8122344659	 0.118229
H	-0.2954875927	-3.6940564081	 0.4408315312	 0.116564
H	-0.6367061695	-1.5856028456	 2.6645378299	 0.109391
H	 0.4852617831	-1.4527350982	 1.3209169932	 0.098689
H	-1.4878703236	-1.5046143921	-0.2996475522	 0.083771
H	-3.825175253	-1.1278153571	 0.67312261	 0.111222
H	-3.0973571481	-1.2538671269	 2.3456325529	 0.106846
H	-0.5166235497	 1.2930043344	 1.6946568609	 0.09344
H	-1.9914093319	 2.9973628145	 2.772824046	 0.111391
H	-3.4389275111	 1.9337090769	 2.4619423519	 0.117205
H	-2.441543286	 0.1089604338	 3.8466485892	 0.111183
H	-0.9424397079	 1.0932424198	 4.1406872105	 0.108739
55.4885	80.9906	123.0696	209.2338	250.5326	278.2362	336.1657	402.5273	492.0459	566.7047	676.785	767.6798	787.0903	807.8373	814.0828	882.9265	923.1015	938.2874	964.2632	989.4518	1037.2127	1051.4177	1068.5671	1072.2386	1111.2198	1127.4866	1139.7455	1165.003	1168.3456	1195.847	1204.3645	1225.9116	1285.217	1341.2122	1350.3527	1400.5279	1409.4548	1428.6749	1461.6102	1486.7719	1498.5983	1499.3731	1508.0084	1510.449	3021.9039	3032.4904	3076.149	3091.3831	3093.6584	3105.9177	3106.7544	3131.1116	3133.9907	3144.0454	3174.3143	3210.0688	3224.9341
CCC1CN1C1CC1	CC[C@H]1CN1C1CC1	
InChI=1S/C7H13N/c1-2-6-5-8(6)7-3-4-7/h6-7H,2-5H2,1H3	InChI=1S/C7H13N/c1-2-6-5-8(6)7-3-4-7/h6-7H,2-5H2,1H3/t6-,8?/m0/s1
