16
gdb 49518	3.7386	1.30809	1.18464	4.1221	68.29	-0.2392	-0.0234	0.2157	1041.7873	0.125321	-437.813796	-437.806958	-437.806014	-437.845358	26.967	
O	-0.0875652209	-0.0320226899	-0.2165905937	-0.263048
C	 0.0069598174	 1.1493566625	 0.0069055153	 0.141769
C	 1.3188087816	 1.8877425413	-0.0108553125	-0.094554
C	 1.237265723	 3.2694557378	-0.7265496082	 0.037751
O	 0.5487856537	 3.79243449	 0.463901082	-0.303471
C	 1.4751269033	 2.8930052744	 1.1693329683	 0.037723
C	 2.8265564591	 3.5945913356	 0.8986752085	-0.047624
N	 3.6797454151	 2.915537269	-0.1030353668	-0.325429
C	 2.6458784251	 3.8805906748	-0.5414711549	-0.047626
H	-0.8814805485	 1.7702839837	 0.242276964	 0.09659
H	 2.1432758319	 1.2202861703	-0.246876439	 0.124852
H	 0.6990388469	 3.4363660879	-1.6585430581	 0.093132
H	 1.1823986181	 2.6712646149	 2.1946646138	 0.093117
H	 3.247311275	 4.2918730694	 1.612026779	 0.109447
H	 4.5869065872	 3.3790735692	-0.1248228455	 0.237922
H	 2.917358412	 4.8141278591	-1.0178253622	 0.109449
81.136	179.5927	262.7228	369.4753	375.0769	484.4898	572.5869	617.0613	699.6813	766.0072	833.7167	834.9725	862.5751	892.0692	896.7065	914.5061	930.2464	970.9434	1043.2145	1065.2167	1066.4871	1095.3266	1115.2298	1151.7336	1183.1843	1186.1027	1214.9932	1250.5544	1273.3945	1291.8677	1327.5728	1331.7328	1394.5848	1416.4784	1821.071	2926.6071	3134.9717	3135.9113	3161.7431	3192.5323	3202.4153	3483.213
O=CC1C2OC1C1NC21	O=C[C@H]1[C@H]2O[C@@H]1[C@H]1N[C@@H]21	
InChI=1S/C6H7NO2/c8-1-2-5-3-4(7-3)6(2)9-5/h1-7H	InChI=1S/C6H7NO2/c8-1-2-5-3-4(7-3)6(2)9-5/h1-7H/t2-,3+,4-,5+,6-
