19
gdb 39213	2.49773	2.02948	1.52443	2.3771	73.79	-0.242	0.0717	0.3138	931.4556	0.1618	-422.986686	-422.979806	-422.978862	-423.017615	28.521	
C	 0.0401007462	 1.6175191176	-0.0023104758	-0.226414
C	 1.5769295415	 1.4248452772	 0.0744303448	 0.129325
C	 1.3126874496	-0.0053245535	 0.6292416269	-0.268283
C	-0.1086424791	 0.0707574871	-0.0104423386	-0.057422
C	-0.1263332369	-0.5271889427	-1.4107244021	 0.040732
O	-0.2437842713	 0.3527527374	-2.5429166552	-0.248729
C	 0.9833829431	-0.3487326063	-2.3565821024	 0.046695
C	 2.2604840288	 0.4221848058	-2.0639926458	-0.11697
O	 2.1960870542	 1.5317202224	-1.1996435872	-0.26632
H	-0.3615070079	 2.0493879439	 0.9182381606	 0.094075
H	-0.3291159929	 2.1613822123	-0.8709273199	 0.126616
H	 2.1326633425	 2.1087284087	 0.7212216698	 0.079398
H	 1.9722491743	-0.8225798664	 0.328897291	 0.102305
H	 1.2692325466	 0.0236482322	 1.7211155691	 0.105191
H	-0.931481422	-0.3444247008	 0.5757990819	 0.065547
H	-0.7174245236	-1.4378510671	-1.5134601541	 0.089492
H	 1.1610906143	-1.1427930442	-3.0879784568	 0.089364
H	 3.0033755747	-0.3174427569	-1.7184065029	 0.094444
H	 2.6412492179	 0.8300607234	-3.0075477631	 0.120953
154.6678	226.8162	313.4602	327.023	385.4115	419.5514	490.965	541.8694	716.9023	735.6193	770.3877	779.1673	818.5247	882.6015	907.1098	925.6583	937.3896	939.5489	994.9567	1036.7108	1077.5016	1085.193	1092.2357	1124.9719	1148.3048	1162.6092	1170.4311	1234.0476	1255.9742	1274.7466	1276.5406	1292.2624	1320.8695	1361.1268	1379.1301	1389.1431	1413.2953	1456.7393	1476.9285	1493.9108	1500.0099	2957.4953	3055.9682	3060.7913	3065.2317	3066.9584	3072.1612	3081.0976	3104.1606	3117.2658	3150.7047
C1C2CC1C1OC1CO2	C1[C@H]2C[C@@H]1[C@H]1O[C@H]1CO2	
InChI=1S/C7H10O2/c1-4-2-5(1)8-3-6-7(4)9-6/h4-7H,1-3H2	InChI=1S/C7H10O2/c1-4-2-5(1)8-3-6-7(4)9-6/h4-7H,1-3H2/t4-,5+,6-,7+/m0/s1
