13
gdb 9016	5.27281	1.16345	1.05141	4.7963	67.76	-0.2685	-0.0455	0.223	1071.8715	0.094149	-357.613894	-357.605583	-357.604639	-357.646757	29.565	
N	 0.3091418417	 1.0418937302	 0.8534936936	-0.553281
C	 0.1785364711	-0.1478284229	 0.1738372435	 0.273021
N	 1.0716703242	-0.8341401274	-0.4287809785	-0.270216
C	 2.4469903374	-0.3342325565	-0.4320884871	-0.312492
C	 3.0498468549	-0.1429610374	 0.8911216298	 0.291449
C	 3.514166629	 0.0265733083	 1.9880191269	-0.453246
C	-1.1885048619	-0.6378587962	 0.1010421938	 0.280762
N	-2.2862539798	-0.9971695279	 0.0687350824	-0.315339
H	 1.2181840967	 1.234263585	 1.2530298108	 0.275508
H	-0.4740222351	 1.3364982324	 1.4159495386	 0.273811
H	 3.0538253967	-1.0490588246	-0.9964739827	 0.15398
H	 2.4940822797	 0.619177461	-0.9826463593	 0.145688
H	 3.9486097953	 0.149184556	 2.949890758	 0.210357
70.0948	111.7632	166.9273	206.9558	278.4269	331.7871	376.2732	435.5645	478.0703	530.3623	599.4521	635.1481	639.1875	667.6043	727.3648	828.9104	923.565	995.2362	1006.671	1153.6766	1259.6635	1336.1335	1366.9097	1472.3739	1646.9247	1717.432	2224.852	2361.1821	2983.4507	3070.8706	3499.601	3549.397	3674.7946
NC(=NCC#C)C#N	NC(=NCC#C)C#N	
InChI=1S/C5H5N3/c1-2-3-8-5(7)4-6/h1H,3H2,(H2,7,8)	InChI=1S/C5H5N3/c1-2-3-8-5(7)4-6/h1H,3H2,(H2,7,8)
