19
gdb 101540	2.58754	0.98991	0.84616	4.2491	78.04	-0.2391	-0.0852	0.1539	1433.9669	0.156375	-419.21038	-419.199882	-419.198938	-419.247472	35.984	
C	 0.3021838825	 0.7571984553	 0.789872254	-0.395995
C	-0.0296016331	-0.3368547071	-0.2236454123	-0.11621
N	-1.4329568177	-0.7556647182	-0.1790337143	-0.059226
C	-2.3652462777	 0.2853092909	-0.5983985823	-0.336842
C	-1.6833572778	-2.0019618449	-0.8689830114	-0.258983
C	-2.9084081095	-2.7111531128	-0.3100549177	 0.291267
O	-3.71458902	-3.318104014	-0.9651870197	-0.258163
C	-3.0471634423	-2.6436332791	 1.1650766601	 0.240958
N	-3.1914430051	-2.6600670158	 2.3123484153	-0.310453
H	 1.3817008572	 0.9347618277	 0.800407813	 0.120986
H	-0.1807117706	 1.7081984315	 0.5488229106	 0.123547
H	-0.0114511731	 0.4557244404	 1.7932621125	 0.137071
H	 0.2585623264	-0.0038607109	-1.2391980611	 0.08446
H	 0.5782111456	-1.2196797863	 0.0019004255	 0.106714
H	-2.1999660733	 0.6082881889	-1.6428434742	 0.102801
H	-3.3938539494	-0.079173023	-0.5182121709	 0.13204
H	-2.2780978864	 1.1577084415	 0.0514259596	 0.136964
H	-1.8199609092	-1.9174653447	-1.9608083035	 0.119342
H	-0.8385221368	-2.6830158593	-0.6979877332	 0.139722
28.6582	47.9838	92.9404	118.9734	193.2197	205.8709	263.2474	277.1043	304.8367	361.9276	380.8965	401.8299	503.712	600.7065	675.5442	723.51	810.0861	838.5811	954.821	1009.2805	1071.7745	1080.5917	1120.3854	1145.431	1171.296	1196.9511	1261.2036	1295.6526	1338.6614	1360.2257	1400.7133	1421.7304	1454.2677	1469.718	1482.8764	1491.9573	1499.2595	1507.923	1515.6948	1804.4887	2335.9352	2920.8284	2940.878	2963.991	3041.3972	3046.3857	3058.3486	3078.0145	3114.8199	3123.801	3131.7155
CCN(C)CC(=O)C#N	CCN(C)CC(=O)C#N	
InChI=1S/C6H10N2O/c1-3-8(2)5-6(9)4-7/h3,5H2,1-2H3	InChI=1S/C6H10N2O/c1-3-8(2)5-6(9)4-7/h3,5H2,1-2H3
