20
gdb 95090	2.4368	1.5586	1.15024	1.0786	85.86	-0.2286	0.038	0.2666	1138.6046	0.17154	-365.978452	-365.969862	-365.968918	-366.011185	33.981	
C	 0.0019675857	 1.5619417505	 0.0222324364	-0.408462
C	 0.0244554058	 0.0345279502	 0.0003981972	-0.034342
C	 0.805071686	-0.5700959344	-1.1942063352	-0.235395
C	 1.3123847821	-1.9514408573	-0.7204535214	-0.220384
C	 1.4971744905	-1.7793810968	 0.7751675954	-0.089801
N	 2.1917251948	-0.5305601847	 1.135193831	-0.38123
C	 0.7009299833	-0.5960100751	 1.222417373	 0.198658
C	 0.0724951146	-0.5287899193	 2.5064582597	 0.175116
C	-0.4670747669	-0.4401370973	 3.5788961498	-0.379912
H	 1.0210992051	 1.954611924	 0.0946626927	 0.128777
H	-0.454408011	 1.9602288661	-0.889740001	 0.109845
H	-0.570274561	 1.9366590503	 0.8768009431	 0.119831
H	-1.0072410009	-0.3412770036	-0.0131639763	 0.076947
H	 0.1870015169	-0.6364042425	-2.0933585306	 0.094629
H	 1.6574484099	 0.0731955891	-1.4259387224	 0.120279
H	 0.5637277053	-2.7331000698	-0.8963648526	 0.101652
H	 2.2337013101	-2.2553685473	-1.2274187606	 0.105763
H	 1.6107314352	-2.6444599089	 1.4205107962	 0.09454
H	 2.5691494743	-0.6177761909	 2.0760528353	 0.236608
H	-0.9411090098	-0.3709192325	 4.5263905403	 0.186883
114.1986	140.3089	175.0207	237.6184	257.1915	318.8392	382.8668	461.7951	491.5186	536.6942	580.0301	592.1186	637.7948	655.5638	657.4907	825.5533	842.2332	863.3771	910.2633	925.9516	961.984	998.6654	1029.5799	1048.5759	1080.0027	1123.823	1136.6638	1144.7951	1210.2192	1241.1427	1272.3722	1282.4178	1318.9577	1342.2575	1353.4639	1372.4981	1406.4868	1421.8644	1480.4051	1493.401	1497.192	1505.2667	2231.1122	3019.3897	3034.578	3037.036	3065.7971	3081.1802	3102.7914	3109.3197	3114.3767	3167.0434	3502.4418	3503.8535
CC1CCC2NC12C#C	C[C@H]1CC[C@H]2N[C@@]12C#C	
InChI=1S/C8H11N/c1-3-8-6(2)4-5-7(8)9-8/h1,6-7,9H,4-5H2,2H3	InChI=1S/C8H11N/c1-3-8-6(2)4-5-7(8)9-8/h1,6-7,9H,4-5H2,2H3/t6-,7+,8-/m0/s1
