16
gdb 9493	3.07247	1.65602	1.52653	3.1731	65.15	-0.2649	0.0175	0.2824	912.4814	0.129948	-379.906551	-379.898217	-379.897273	-379.939352	30.076	
C	-0.4258283373	 1.4349714126	 0.0416814874	-0.402648
C	 0.1995801736	 0.0636907765	-0.0530530878	 0.133326
O	 1.4822988324	 0.0530203961	-0.7204296864	-0.286879
C	 2.039155194	-0.8464349279	 0.2499721892	-0.109768
C	 0.8380446669	-0.5986736846	 1.2205020132	 0.069182
N	 1.0312583967	 0.3232037623	 2.3284400967	-0.550365
C	 0.1678311397	-1.8034118548	 1.7047603236	 0.27112
N	-0.3454061579	-2.7728867107	 2.0681944925	-0.332448
H	 0.2280205748	 2.1511059021	 0.54397639	 0.119875
H	-0.630561512	 1.8064032294	-0.967083796	 0.136176
H	-1.3704595658	 1.3825441807	 0.5905059713	 0.139363
H	-0.4901903786	-0.6363510526	-0.5437643414	 0.094777
H	 2.1156483957	-1.874597532	-0.1256841682	 0.117842
H	 3.0141242901	-0.5131965835	 0.6228616756	 0.109192
H	 1.5129812215	-0.1404311583	 3.0928646445	 0.246568
H	 1.6158672862	 1.0981248345	 2.030274616	 0.244688
66.4913	147.6262	182.9892	192.3902	256.7909	272.7079	360.347	378.9809	499.5186	550.166	561.2701	621.1535	781.1842	850.226	875.1235	932.4035	961.1657	1023.0026	1031.8466	1077.8231	1103.8515	1143.7546	1167.8182	1247.3163	1285.1675	1314.1778	1361.7822	1397.786	1414.939	1477.6993	1490.3961	1515.4503	1651.375	2359.7965	3010.7122	3019.0629	3049.4737	3074.0308	3121.0337	3133.5617	3497.3042	3581.0328
CC1OCC1(N)C#N	C[C@H]1OC[C@]1(N)C#N	
InChI=1S/C5H8N2O/c1-4-5(7,2-6)3-8-4/h4H,3,7H2,1H3	InChI=1S/C5H8N2O/c1-4-5(7,2-6)3-8-4/h4H,3,7H2,1H3/t4-,5-/m1/s1
