16
gdb 125250	2.43848	1.47904	0.92686	5.0473	77.98	-0.2201	-0.0333	0.1868	1208.5923	0.125185	-434.112487	-434.104088	-434.103144	-434.145353	31.197	
C	-0.0288817173	 1.513208535	 0.0532243169	-0.507156
C	-0.01722733	 0.0224860178	-0.0558450683	 0.434246
C	-0.0460433738	-0.7704874646	-1.1657522015	-0.396813
C	-0.0225480219	-2.1151405268	-0.6702584954	 0.419181
N	-0.1092953957	-3.2690896004	-1.4243234933	-0.583741
N	 0.0247437444	-2.1588798837	 0.6455587861	-0.321241
N	 0.0195565389	-0.8377402424	 1.0308916202	-0.095844
C	 0.0607877152	-0.4783326971	 2.3743640521	 0.175715
O	 0.0950441537	-1.2453037135	 3.2973416175	-0.277267
H	 0.8663555746	 1.8988882459	 0.5526019358	 0.147082
H	-0.0638749888	 1.9456720586	-0.9487945213	 0.142876
H	-0.9004329493	 1.8799254279	 0.6058097015	 0.148433
H	-0.0915499081	-0.4442618589	-2.1930245249	 0.109374
H	 0.3539387693	-3.2285750205	-2.3199154895	 0.252592
H	 0.1321003644	-4.1011747234	-0.9033150999	 0.261707
H	 0.0590338944	 0.6199364463	 2.4873903038	 0.090856
124.4495	165.7625	198.7886	203.1178	234.0871	278.268	325.7947	414.3826	434.2026	565.7893	601.0994	626.3559	635.517	707.9866	735.8634	798.9099	892.5659	987.1081	1014.439	1019.5973	1063.1148	1113.8451	1151.1818	1198.7365	1334.346	1375.9665	1418.0694	1462.7701	1480.0467	1483.6779	1501.4236	1547.1911	1631.0964	1665.0909	1832.4796	2984.0126	3037.8703	3091.5667	3129.4939	3254.9417	3562.3435	3666.4776
CC1=CC(N)=NN1C=O	Cc1cc(N)nn1C=O	
InChI=1S/C5H7N3O/c1-4-2-5(6)7-8(4)3-9/h2-3H,1H3,(H2,6,7)	InChI=1S/C5H7N3O/c1-4-2-5(6)7-8(4)3-9/h2-3H,1H3,(H2,6,7)
