17
gdb 18023	4.16484	1.57295	1.4298	3.2124	63.55	-0.2371	0.0618	0.2989	913.3301	0.143791	-400.936699	-400.929542	-400.928597	-400.968397	27.153	
O	 0.090654892	 1.1717927264	-0.4656049773	-0.426626
C	 0.0514976723	-0.1380626364	 0.0753657945	-0.066758
C	-1.3921829606	-0.6107479827	 0.1959520932	-0.001924
N	-2.1417821771	-0.466573494	-1.1001785948	-0.350688
C	-2.596778199	-1.8816732309	-1.0321323523	-0.051651
C	-1.6362454412	-2.8367335815	-1.7577316045	-0.06348
O	-0.7870951673	-2.9292218868	-0.5821940046	-0.289772
C	-1.6966664752	-2.132239333	 0.2005953585	 0.079732
H	-0.3895402238	 1.10898057	-1.3016946458	 0.282284
H	 0.6123020077	-0.8512380181	-0.5433604279	 0.103397
H	 0.5284290516	-0.09400565	 1.0601196642	 0.103992
H	-1.8960272	-0.0998824448	 1.0259078931	 0.074483
H	-2.9094072299	 0.1911518318	-1.0341013729	 0.227375
H	-3.6708555068	-2.0570590281	-1.0943404267	 0.082982
H	-2.0572178733	-3.8173537336	-2.0128980665	 0.102359
H	-1.1160125778	-2.4102411735	-2.6213588785	 0.111442
H	-1.9734836615	-2.6127737649	 1.1412239583	 0.082853
89.5107	120.6525	187.9187	290.8998	395.9237	465.7501	506.4384	524.137	693.1766	770.9443	796.2108	822.5073	868.7728	919.4677	948.8873	1005.2564	1025.2007	1032.7084	1058.8168	1076.9483	1083.2351	1124.1527	1157.2304	1183.9704	1200.67	1213.9063	1263.4583	1299.4936	1301.2479	1351.4612	1364.4167	1390.7809	1396.7643	1436.7693	1504.314	1511.0294	3017.756	3018.9042	3026.4296	3080.2095	3083.9509	3087.2866	3110.4282	3545.7115	3763.288
OCC1NC2COC12	OC[C@H]1N[C@H]2CO[C@@H]12	
InChI=1S/C5H9NO2/c7-1-3-5-4(6-3)2-8-5/h3-7H,1-2H2	InChI=1S/C5H9NO2/c7-1-3-5-4(6-3)2-8-5/h3-7H,1-2H2/t3-,4+,5+/m1/s1
