21
gdb 84884	2.22286	1.79234	1.29517	1.084	83.64	-0.2401	0.024	0.2641	1084.8268	0.183029	-387.085642	-387.077259	-387.076315	-387.118121	33.454	
C	 0.0059146426	 1.5834839556	-0.0097484408	-0.389928
C	 0.0086831929	 0.0428217407	 0.0091352205	-0.085763
C	 0.6890262826	-0.5171919287	-1.2190007954	-0.072186
C	 1.8935242342	-1.0793306056	-1.1621754582	-0.070372
C	 2.6621169988	-1.1822571206	 0.125135846	-0.132883
O	 2.1085083589	-0.388533072	 1.1635830746	-0.296972
C	 0.7095242292	-0.5116103555	 1.240458087	 0.449211
C	 0.1468565728	-0.3438293868	 2.6130560432	-0.333298
C	 0.1718729973	-1.7190995832	 1.9684872241	-0.336072
H	 1.0298627962	 1.9594307071	 0.0665351318	 0.130641
H	-0.4295006923	 1.9648139203	-0.9390382833	 0.107101
H	-0.5728562698	 1.9862363721	 0.8273458453	 0.111551
H	-1.0337863203	-0.3032986997	 0.0201316295	 0.073785
H	 0.1634663553	-0.4279225249	-2.1666079618	 0.087074
H	 2.3687381657	-1.4933046875	-2.0477535544	 0.089322
H	 2.7282800433	-2.2391645534	 0.4408085773	 0.097076
H	 3.6906948867	-0.8269688666	-0.008842827	 0.114139
H	 0.8556835658	-0.1538718805	 3.4107629179	 0.122081
H	-0.8077806664	 0.1602867601	 2.72023528	 0.109944
H	-0.7647619008	-2.1561654042	 1.6390250113	 0.110105
H	 0.8965587175	-2.4294303168	 2.3508562426	 0.115442
105.4094	173.6778	215.4911	240.093	249.7746	307.4763	359.5263	436.9389	498.9818	519.1295	568.942	682.4409	725.8722	769.1852	827.978	851.8073	895.2381	915.6483	949.1612	963.6743	993.1407	1000.5488	1014.3832	1046.3465	1059.4525	1077.193	1099.3673	1103.0904	1123.0738	1186.0035	1188.0824	1266.606	1275.2658	1284.0091	1316.9081	1388.4122	1394.9112	1405.5765	1413.0805	1452.0218	1486.4143	1492.05	1496.4989	1504.4251	1724.067	2942.6909	3012.3928	3035.4924	3051.662	3102.6144	3119.8444	3130.6236	3135.0746	3147.2658	3171.5083	3214.6328	3229.0605
CC1C=CCOC11CC1	C[C@H]1C=CCOC21CC2	
InChI=1S/C8H12O/c1-7-3-2-6-9-8(7)4-5-8/h2-3,7H,4-6H2,1H3	InChI=1S/C8H12O/c1-7-3-2-6-9-8(7)4-5-8/h2-3,7H,4-6H2,1H3/t7-/m0/s1
