19
gdb 41909	2.23746	2.00202	1.77356	1.7716	69.7	-0.2435	0.0724	0.3159	909.1011	0.162939	-460.157133	-460.150068	-460.149124	-460.188526	28.244	
C	 0.00866501	 1.5154560473	-0.0098927687	-0.064641
O	 1.3325002903	 2.0391114939	-0.0085927239	-0.271409
C	 2.324130628	 1.1106374188	-0.417957589	 0.172593
C	 2.8482943697	 0.2777426732	 0.7737951377	-0.106283
O	 2.0645664715	-0.8524449758	 1.0949266986	-0.236258
C	 0.6887981047	-0.584713264	 1.2847491344	-0.08492
C	 0.0141112811	-0.0139729765	 0.0132125105	-0.101359
C	 0.7503243924	-0.4855345484	-1.2486210703	-0.056786
O	 1.9106089577	 0.3222649044	-1.5006976886	-0.261512
H	-0.5051630292	 1.9241682815	 0.868251743	 0.103829
H	-0.5246646459	 1.8676912732	-0.9050659139	 0.099612
H	 3.153855237	 1.7212193664	-0.7902632567	 0.09451
H	 3.8376809483	-0.1156520648	 0.5214782049	 0.11334
H	 2.947943963	 0.9574605018	 1.6347359531	 0.097176
H	 0.2466601408	-1.5517631301	 1.5414323761	 0.110736
H	 0.5322809764	 0.0957802369	 2.13777037	 0.095412
H	-1.0236381296	-0.3644319888	-0.0213850098	 0.081109
H	 1.0475399157	-1.5370321861	-1.1683417296	 0.111278
H	 0.1016206682	-0.3718801628	-2.1246944179	 0.103575
94.7582	250.5695	277.9339	303.9861	351.553	393.6003	479.3098	536.3034	566.2083	763.7205	782.9446	805.5717	862.9204	888.3873	939.7498	961.1857	971.5368	982.2381	1024.9185	1051.2929	1070.6707	1112.4115	1145.1122	1164.57	1206.8106	1238.9049	1249.2645	1266.7012	1306.2527	1347.8147	1350.5606	1363.5532	1372.3551	1382.7222	1411.471	1418.6552	1428.1893	1484.346	1500.9582	1509.3945	1524.1487	2974.4435	2987.1027	2995.6883	3027.1459	3046.0296	3051.1503	3056.9957	3069.0951	3083.0633	3087.7366
C1OC2COCC1CO2	C1O[C@H]2COC[C@@H]1CO2	
InChI=1S/C6H10O3/c1-5-2-8-6(4-7-1)9-3-5/h5-6H,1-4H2	InChI=1S/C6H10O3/c1-5-2-8-6(4-7-1)9-3-5/h5-6H,1-4H2/t5-,6+
