22
gdb 60024	2.93359	0.78038	0.71403	2.3286	80.94	-0.2412	-0.0321	0.2091	1674.7332	0.190831	-441.477384	-441.466513	-441.465568	-441.514149	38.671	
C	-1.3747453326	 1.4893614634	-1.5761732151	-0.387107
C	-1.5757676066	-0.0126277217	-1.4266335543	 0.140641
O	-0.5538027198	-0.6768144181	-2.1466863192	-0.437675
C	-1.5340429345	-0.4555933447	 0.0430003482	-0.160591
N	-1.5487669804	-1.9198430582	 0.1481322829	-0.09399
C	-0.8917803434	-2.4085819689	 1.3574320053	-0.334519
C	-2.8767447119	-2.4985451298	 0.0006028172	-0.235823
C	-2.8092005061	-3.962174869	-0.4082738233	 0.151353
O	-3.6207920488	-4.7933153419	-0.0997922534	-0.233163
H	-1.3763028877	 1.763256538	-2.6343270365	 0.129143
H	-2.1740654991	 2.0438506863	-1.0742432456	 0.110679
H	-0.4133066684	 1.7910612589	-1.1484805942	 0.120603
H	-2.5636451967	-0.270888541	-1.8509506148	 0.06006
H	-0.5169756386	-1.5653989921	-1.7633043791	 0.272852
H	-0.5885246228	-0.1053785557	 0.4702431883	 0.106619
H	-2.3506249223	 0.0142505447	 0.6181192068	 0.087661
H	-1.4069266218	-2.093734349	 2.2821652421	 0.107928
H	-0.8617953372	-3.5030696686	 1.3499418001	 0.131426
H	 0.137748361	-2.0431833226	 1.3929885801	 0.13151
H	-3.504145606	-2.4074120481	 0.9036889053	 0.112463
H	-3.4040582675	-1.9829788966	-0.8129118591	 0.1363
H	-1.9344147987	-4.2007901952	-1.0564631015	 0.083629
56.1935	66.4243	82.8334	120.294	183.9692	221.2642	223.9477	245.1127	296.4328	373.5648	387.1853	435.2638	482.8873	510.4303	548.8218	561.5946	751.7463	854.219	883.0474	937.8888	955.1539	1044.2634	1056.3342	1064.9318	1081.084	1108.9714	1150.8907	1177.0537	1186.7843	1240.3744	1278.3325	1307.8779	1313.3352	1356.9626	1364.2244	1386.7786	1405.582	1409.5266	1448.2658	1455.9037	1467.2805	1485.0945	1490.3106	1493.0749	1501.312	1506.8806	1841.5443	2870.91	2923.3922	2953.0416	2959.5164	2968.1095	3039.8306	3047.386	3066.5757	3071.1584	3112.0987	3114.9476	3121.9879	3715.1299
CC(O)CN(C)CC=O	C[C@@H](O)CN(C)CC=O	
InChI=1S/C6H13NO2/c1-6(9)5-7(2)3-4-8/h4,6,9H,3,5H2,1-2H3	InChI=1S/C6H13NO2/c1-6(9)5-7(2)3-4-8/h4,6,9H,3,5H2,1-2H3/t6-/m1/s1
