19
gdb 13907	3.25589	1.32002	1.19566	3.1503	73.98	-0.2281	-0.0108	0.2173	1121.1225	0.16247	-365.058258	-365.048725	-365.047781	-365.092908	33.546	
C	 0.168811211	 1.8756520961	 0.0707658866	-0.418744
C	-0.1373491119	 0.3999973106	-0.0678766189	 0.007905
C	 0.4926446682	-0.4140408118	-1.1718463937	-0.125517
N	 0.8079007419	-0.6596039251	 0.2373513118	-0.097755
C	 2.1546842923	-0.3411383995	 0.6932797131	-0.315844
C	-0.2471345708	-1.456366367	-1.9595153922	 0.381757
C	-1.0699873807	-2.4699173798	-1.1906675371	-0.48545
O	-0.1739644411	-1.4576020286	-3.1697263589	-0.314087
H	 1.1603877759	 2.1370562004	-0.3044163351	 0.127404
H	-0.5646148445	 2.4593601405	-0.4943583585	 0.13351
H	 0.10550913	 2.1890128814	 1.1188055247	 0.12762
H	-1.1564613351	 0.1397878549	 0.2171095213	 0.094271
H	 1.2279793489	 0.1193180871	-1.7745806458	 0.092041
H	 2.6206070119	 0.5147755897	 0.1840260036	 0.108558
H	 2.1294375857	-0.1325416152	 1.7674535171	 0.126945
H	 2.7918675775	-1.2157801469	 0.5319810314	 0.131844
H	-1.9241327521	-1.9796872559	-0.7088382216	 0.137641
H	-1.4382552323	-3.231794603	-1.8781514001	 0.135793
H	-0.473838965	-2.9145350677	-0.3895654178	 0.152109
42.0485	115.8604	147.2538	165.7833	180.2139	181.0565	261.0318	323.16	334.4673	465.1149	512.7627	535.588	584.4842	761.6763	792.7045	802.2738	957.9244	992.5728	1016.9989	1040.7863	1068.5439	1104.7917	1129.0346	1155.7213	1174.8618	1190.6635	1259.9207	1280.3701	1370.641	1383.3398	1407.0716	1429.3519	1456.9128	1463.2016	1470.5439	1486.3242	1487.3064	1500.4692	1507.8923	1795.3279	2994.9565	3039.6532	3042.9872	3074.9788	3099.757	3101.6514	3107.8845	3109.7744	3114.7175	3133.577	3159.9799
CC1C(N1C)C(C)=O	C[C@H]1[C@@H](N1C)C(=O)C	
InChI=1S/C6H11NO/c1-4-6(5(2)8)7(4)3/h4,6H,1-3H3	InChI=1S/C6H11NO/c1-4-6(5(2)8)7(4)3/h4,6H,1-3H3/t4-,6+,7?/m0/s1
