23
gdb 96181	2.28253	1.7191	1.13547	1.1807	85.23	-0.2396	0.0806	0.3202	1164.6287	0.20824	-388.296052	-388.28777	-388.286826	-388.328508	33.403	
C	-0.0952901061	 1.5398655489	-0.0798586516	-0.40447
C	 0.0156745142	 0.0236557203	 0.0013210669	 0.104816
O	 0.5975359811	-0.425183933	-1.2190530939	-0.256691
C	 0.6978327173	-1.8377279791	-1.2786338073	-0.075462
C	 1.7273079126	-2.3523808375	-0.2724064713	-0.210714
C	 1.377300088	-1.9169702735	 1.163040035	-0.026112
C	 2.6047198347	-1.3965115548	 1.9635512615	-0.232035
C	 2.2491100094	 0.0431127933	 1.500508962	-0.236333
C	 0.8068966842	-0.4621600521	 1.2137094466	 0.032594
H	 0.8969807243	 1.9954216679	-0.1486790505	 0.124928
H	-0.6678158264	 1.8319202997	-0.9642736791	 0.120809
H	-0.5972643978	 1.9356132978	 0.8084608509	 0.110824
H	-1.000834627	-0.4073558758	 0.0718787522	 0.055252
H	-0.2901343339	-2.2953240086	-1.0942015127	 0.07974
H	 0.9929819323	-2.0830784964	-2.3034856689	 0.100909
H	 1.8091455131	-3.4436313832	-0.3339777864	 0.092309
H	 2.7026365579	-1.9454552115	-0.5638184566	 0.102123
H	 0.7631463504	-2.6801500784	 1.6499783994	 0.058685
H	 2.4666343934	-1.516267786	 3.0420619398	 0.096559
H	 3.5850352009	-1.7968848873	 1.6900417638	 0.092433
H	 2.3708833618	 0.8555709761	 2.2204577591	 0.092446
H	 2.7680997556	 0.3135824108	 0.5768019655	 0.111666
H	 0.1892423902	-0.3364929874	 2.1101329456	 0.065724
121.4945	159.0359	210.8056	218.48	299.2487	325.1152	366.9449	439.7112	447.6672	563.2624	644.8808	665.1368	751.8475	798.0907	849.7383	860.7595	910.1043	934.2696	941.4382	952.199	994.7721	1014.2355	1020.9628	1084.0173	1096.8151	1107.7951	1147.8245	1154.3919	1188.9564	1203.6279	1228.668	1245.1936	1259.8333	1266.8224	1287.5195	1296.0358	1340.1879	1351.6589	1369.0461	1381.8318	1387.2899	1408.5872	1418.1635	1477.4671	1482.8723	1486.2244	1495.1984	1500.4027	1501.6772	2919.5323	2952.8957	3030.7357	3036.9302	3042.687	3046.0345	3055.0739	3062.3713	3074.9218	3078.2922	3096.5635	3114.8504	3117.1458	3120.2582
CC1OCCC2CCC12	C[C@H]1OCC[C@H]2CC[C@@H]12	
InChI=1S/C8H14O/c1-6-8-3-2-7(8)4-5-9-6/h6-8H,2-5H2,1H3	InChI=1S/C8H14O/c1-6-8-3-2-7(8)4-5-9-6/h6-8H,2-5H2,1H3/t6-,7-,8+/m1/s1
