20
gdb 119203	1.84771	1.36587	0.92061	3.7668	81.45	-0.2692	0.0221	0.2914	1364.1797	0.168462	-403.148605	-403.138419	-403.137475	-403.184143	36.403	
C	-0.0006053881	 1.5136422911	-0.1067160101	-0.388021
C	-0.1969839506	 0.0127823462	-0.2113825326	-0.064849
O	 0.8699120519	-0.5154906001	-1.0049606902	-0.284252
C	 0.8208226344	-1.8888895126	-1.1980983424	 0.281776
C	-0.1196442622	-2.4531101737	-2.2564110048	-0.343726
C	 1.3635855943	-2.4093139787	-2.5160146737	-0.059261
C	 1.9585668422	-1.4465428106	-3.5179777145	-0.405633
C	 1.0546116062	-2.6799124831	-0.0050858061	 0.250437
N	 1.2355498873	-3.3003362513	 0.9545987389	-0.355529
H	 0.9584336996	 1.7435759247	 0.3652457194	 0.13524
H	-0.0170020307	 1.9769410275	-1.0973669253	 0.126244
H	-0.7991666413	 1.9553890923	 0.4963317372	 0.122762
H	-0.1839636926	-0.4551112075	 0.7827971454	 0.119293
H	-1.1610005878	-0.2304116207	-0.6815835528	 0.096862
H	-0.6023209421	-3.4049988313	-2.0689741049	 0.135977
H	-0.7335817982	-1.7122161258	-2.7578897709	 0.130116
H	 1.877077875	-3.3628703467	-2.4357820938	 0.114546
H	 1.44368726	-0.4844686565	-3.4928836109	 0.133279
H	 3.0171071658	-1.2663298819	-3.3068970244	 0.131152
H	 1.8798841868	-1.8579688913	-4.5294609035	 0.123586
60.1756	94.9593	129.5667	145.0292	161.7306	190.6065	242.543	275.7911	331.8815	386.1217	418.8964	487.5462	576.5291	602.4285	702.0625	801.3034	820.8632	885.6915	895.1983	934.6962	956.1776	1020.9452	1057.8578	1070.878	1099.3597	1137.7473	1145.4125	1187.178	1194.4017	1244.4464	1287.0275	1299.3484	1397.2715	1402.7112	1418.7201	1430.6976	1473.4708	1483.4043	1491.6192	1499.5216	1500.2938	1526.4245	2343.5865	2995.4723	3033.9952	3043.5705	3047.3198	3105.2046	3121.6818	3125.9832	3133.1702	3137.5008	3158.6662	3231.6145
CCOC1(CC1C)C#N	CCO[C@]1(C[C@H]1C)C#N	
InChI=1S/C7H11NO/c1-3-9-7(5-8)4-6(7)2/h6H,3-4H2,1-2H3	InChI=1S/C7H11NO/c1-3-9-7(5-8)4-6(7)2/h6H,3-4H2,1-2H3/t6-,7-/m1/s1
