19
gdb 92565	2.49537	1.87619	1.80707	2.8546	72.24	-0.2447	0.0748	0.3196	898.3898	0.163046	-423.022536	-423.015862	-423.014918	-423.053329	28.27	
O	 0.2143070181	 1.3429573866	-0.3309739729	-0.447349
C	 0.0572118922	-0.0372192003	-0.0522454646	 0.121399
C	 0.6670250388	-0.4944174244	 1.3044159795	-0.237867
C	-0.509825855	-0.6172015151	 2.296108651	-0.068413
C	-0.9796604376	 0.7487972055	 2.8198809506	-0.086317
O	-1.7151599851	 1.3378039223	 1.7319535754	-0.276775
C	-2.2960572074	 0.2713868468	 0.9995662172	 0.082715
C	-1.4089894495	-0.4809530526	 0.0304726675	-0.113615
C	-1.7094838385	-1.0387392977	 1.413432387	-0.117081
H	-0.3695051302	 1.807949628	 0.2842669508	 0.290259
H	 0.5598111526	-0.5507816498	-0.8770924943	 0.08202
H	 1.1247205718	-1.4812726589	 1.1762508357	 0.097324
H	 1.4499017977	 0.196062107	 1.6319413161	 0.103105
H	-0.3076489243	-1.3127279307	 3.1132697187	 0.076219
H	-1.6415166907	 0.634707999	 3.6900883164	 0.09992
H	-0.1660438935	 1.4316683213	 3.0798502309	 0.113812
H	-3.347478568	 0.4185569415	 0.778619336	 0.10209
H	-1.8871130319	-0.8929615734	-0.8516488259	 0.087686
H	-2.2886020994	-1.932922315	 1.6043368949	 0.090867
127.7592	230.5458	351.3759	374.7614	415.4464	545.1883	577.5388	588.1405	715.2866	756.5694	759.9294	782.1284	796.7538	836.4326	876.5182	922.965	939.9673	950.2763	988.9802	1022.294	1030.3067	1035.6564	1072.2296	1083.0989	1100.2877	1116.4171	1152.532	1187.0354	1216.3683	1257.7223	1264.6247	1277.3762	1307.6277	1319.9122	1331.6183	1352.1004	1378.6432	1406.5619	1465.8868	1480.3187	1513.1673	3004.8693	3040.9693	3065.5925	3090.6645	3092.5883	3098.4627	3164.7222	3172.6338	3194.4295	3735.8453
OC1CC2COC3C1C23	O[C@H]1C[C@H]2CO[C@H]3[C@@H]1[C@@H]23	
InChI=1S/C7H10O2/c8-4-1-3-2-9-7-5(3)6(4)7/h3-8H,1-2H2	InChI=1S/C7H10O2/c8-4-1-3-2-9-7-5(3)6(4)7/h3-8H,1-2H2/t3-,4-,5+,6-,7+/m0/s1
