23
gdb 118477	2.0878	0.98642	0.71195	1.9259	79.03	-0.2478	0.0748	0.3226	1633.3762	0.201687	-462.543062	-462.531103	-462.530159	-462.581234	41.497	
C	-0.4869559603	 1.2879733077	 0.2663219483	-0.238313
O	 0.1052630163	 0.0430984601	-0.0292720303	-0.255026
C	 0.8099391708	-0.5707482746	 1.0510636539	 0.107062
C	 0.2127110479	-1.9511535074	 1.3239750648	-0.16934
C	-1.2258587122	-1.8969185129	 1.8186651394	-0.089375
O	-1.6607538732	-3.2331420493	 2.0303362713	-0.421952
C	 2.3011155698	-0.6609787487	 0.6810852334	 0.121295
C	 2.9136580372	 0.6939607337	 0.3332384368	-0.41609
O	 2.9468934621	-1.2475632869	 1.8087325525	-0.436621
H	 0.2555367812	 2.0482875505	 0.5493308517	 0.10573
H	-0.9987688506	 1.6228080835	-0.6402694022	 0.124535
H	-1.226809362	 1.2109554344	 1.0772190191	 0.105499
H	 0.7293811908	 0.0517867768	 1.9554309573	 0.071692
H	 0.2441696124	-2.5392308734	 0.3991042794	 0.10512
H	 0.8327662789	-2.4659306536	 2.0624334029	 0.12683
H	-1.2776528515	-1.3114375294	 2.7526141073	 0.076641
H	-1.8535065795	-1.3875749942	 1.0724837404	 0.093052
H	-2.5870534838	-3.209023286	 2.2867358556	 0.282915
H	 2.3818861903	-1.3245498752	-0.1957353083	 0.071258
H	 3.9709851024	 0.5783925158	 0.0676023965	 0.101882
H	 2.4017049292	 1.142091913	-0.5215909622	 0.132077
H	 2.8535674386	 1.3755225867	 1.1882408536	 0.117332
H	 3.882765175	-1.3337009804	 1.604069499	 0.283799
43.6767	69.7609	83.773	95.334	135.4645	169.5398	233.9572	249.2187	251.3866	259.6926	299.6003	316.3107	357.6579	422.4921	472.3651	486.1625	575.7496	788.087	872.9654	904.3871	949.9097	1009.9453	1051.0221	1068.8035	1081.6143	1106.7349	1128.189	1135.1728	1163.9894	1181.4564	1210.9842	1223.7924	1241.2361	1275.7855	1304.767	1315.012	1359.1583	1371.2663	1387.7733	1398.5892	1426.8291	1458.8813	1481.9988	1485.0605	1488.0209	1493.3297	1500.8883	1511.3657	1532.0499	2953.0842	2965.1384	2978.1387	2996.0614	3004.1534	3028.8323	3030.577	3047.4084	3093.6568	3105.1213	3112.4804	3128.946	3825.5624	3830.0148
COC(CCO)C(C)O	CO[C@@H](CCO)[C@@H](C)O	
InChI=1S/C6H14O3/c1-5(8)6(9-2)3-4-7/h5-8H,3-4H2,1-2H3	InChI=1S/C6H14O3/c1-5(8)6(9-2)3-4-7/h5-8H,3-4H2,1-2H3/t5-,6+/m1/s1
