16
gdb 46296	3.29716	1.36866	1.26063	3.6795	71.02	-0.2328	0.0117	0.2445	1028.7949	0.126742	-434.069213	-434.061783	-434.060839	-434.101455	28.023	
N	 0.0226721064	 1.2281723712	-0.13959103	-0.548505
C	 0.0322776167	-0.0129805966	 0.024914887	 0.405506
O	 1.0433760018	-0.8792640701	 0.3718193323	-0.258615
C	 0.1223667294	-2.015734621	 0.4019261484	-0.116638
C	-1.0477561699	-1.0890477564	-0.0206464284	 0.199211
C	-2.2696841945	-0.8919901238	 0.9146798904	-0.26703
N	-3.3567271245	-1.4327408728	 0.0889672186	-0.301996
C	-2.8530289949	-1.5304342664	-1.1917374928	 0.061306
N	-1.591815989	-1.3868150786	-1.3500401325	-0.285315
H	 0.949846938	 1.6353994038	-0.0067567704	 0.229282
H	 0.3959204184	-2.7672654476	-0.340015428	 0.131481
H	 0.0664160456	-2.4453814524	 1.4060057145	 0.113134
H	-2.1771483349	-1.43096272	 1.8618961695	 0.118901
H	-2.4122395002	 0.1742384031	 1.1264540715	 0.138377
H	-4.293145141	-1.0801946265	 0.2207156451	 0.249819
H	-3.5275359474	-1.7716460061	-2.0083675653	 0.131082
89.8055	119.5658	178.8634	275.7603	341.9407	413.5421	499.6538	531.6169	602.4552	671.1143	757.3574	811.8826	851.9312	874.1005	900.3693	944.1394	968.2486	973.2271	1013.4071	1016.2881	1108.4465	1121.8796	1142.8748	1165.4154	1198.9114	1231.6622	1245.7364	1307.3662	1345.04	1370.868	1443.3271	1502.7185	1515.1151	1678.1987	1826.9127	3033.8269	3060.2352	3085.1304	3136.5747	3187.7866	3477.9315	3612.1311
N=C1OCC11CNC=N1	[NH][C]1OC[C@]21CN[CH][N]2	
InChI=1S/C5H7N3O/c6-4-5(2-9-4)1-7-3-8-5/h3,6H,1-2H2,(H,7,8)	InChI=1S/C5H7N3O/c6-4-5(2-9-4)1-7-3-8-5/h3,6H,1-2H2,(H,7,8)/t5-/m0/s1
