13
gdb 47274	2.38737	1.78851	1.07762	5.0645	59.33	-0.2611	-0.1276	0.1335	1025.8134	0.088389	-493.742384	-493.734708	-493.733763	-493.775597	27.321	
O	-0.0335627682	 0.0657549657	 0.5758228636	-0.254729
C	-0.0650049837	 1.2012007985	 0.1872318819	 0.323243
C	-1.3039012405	 2.0696291069	 0.1054649342	-0.342625
C	-1.1926329001	 3.0222491537	-1.0820454562	-0.104265
O	-0.0735147101	 3.9156619816	-0.9481708116	-0.219387
C	 1.1520776444	 3.4158592512	-0.6655480184	 0.336543
O	 2.1192104993	 4.116280576	-0.6538992012	-0.278412
C	 1.2347969163	 1.904321763	-0.3047141523	 0.16683
O	 2.2778232189	 1.3205929518	-0.3775981284	-0.223636
H	-2.1925048397	 1.436928002	 0.0385067718	 0.151271
H	-1.3787189372	 2.6580295747	 1.030055456	 0.157713
H	-1.1068535531	 2.47124669	-2.0267344869	 0.136817
H	-2.0651367965	 3.6729742851	-1.1498605724	 0.150637
38.7208	100.9895	218.9895	312.9531	335.0849	350.8649	408.6763	456.8428	508.9709	593.4228	645.4633	659.4491	800.1814	897.9513	932.4067	982.7389	1057.8211	1082.8684	1142.249	1199.6759	1234.1986	1281.1692	1340.4966	1412.033	1442.0813	1517.5506	1824.6635	1843.8169	1860.1608	3030.8236	3041.5537	3113.977	3129.4052
O=C1CCOC(=O)C1=O	O=C1CCOC(=O)C1=O	
InChI=1S/C5H4O4/c6-3-1-2-9-5(8)4(3)7/h1-2H2	InChI=1S/C5H4O4/c6-3-1-2-9-5(8)4(3)7/h1-2H2
