16
gdb 125406	2.92529	1.25718	0.97824	2.9774	75.46	-0.2546	-0.0083	0.2463	1195.0471	0.122932	-400.716488	-400.707834	-400.70689	-400.750352	31.381	
C	 0.3280989534	 1.4494045814	 0.1586458555	-0.514675
C	 0.0966758557	-0.0238472202	 0.0460327415	 0.079346
C	-0.0775530438	-0.7842013591	-1.0653489673	 0.003366
O	-0.2630227809	-2.075508	-0.7468174729	-0.169408
N	-0.2120571125	-2.2022234586	 0.6346848442	-0.201317
C	-0.000271271	-0.9933618341	 1.0956445597	 0.331866
C	 0.0924918321	-0.7799375182	 2.5842786819	-0.453976
C	 1.3709144086	-0.2117199881	 3.0068542317	 0.306062
C	 2.4215015264	 0.2588883285	 3.3507937855	-0.45633
H	 1.254862349	 1.6634638212	 0.6995881968	 0.151852
H	 0.3921979974	 1.9123740172	-0.8293873479	 0.128682
H	-0.4841103253	 1.9434059429	 0.7043781066	 0.133429
H	-0.0931057683	-0.5528432186	-2.1196532011	 0.148227
H	-0.72228481	-0.1188506196	 2.9089509658	 0.146098
H	-0.0720479779	-1.7451460707	 3.0747170094	 0.164053
H	 3.3519608573	 0.6644857959	 3.6628709605	 0.202726
56.2136	108.5925	116.434	222.5055	249.6226	309.1819	333.9446	393.3576	453.1017	616.2213	621.8734	638.2887	650.7321	689.5243	777.9376	838.7247	905.1873	944.0819	953.7326	975.8683	1021.8738	1071.0207	1150.9423	1195.5393	1222.2178	1295.1969	1331.7147	1423.0724	1428.5463	1457.7258	1481.3532	1501.5541	1514.0191	1658.3699	2241.4887	3021.1878	3035.0349	3078.2724	3091.4704	3120.4438	3259.5365	3505.3165
CC1=CON=C1CC#C	Cc1conc1CC#C	
InChI=1S/C7H7NO/c1-3-4-7-6(2)5-9-8-7/h1,5H,4H2,2H3	InChI=1S/C7H7NO/c1-3-4-7-6(2)5-9-8-7/h1,5H,4H2,2H3
