19
gdb 26137	2.55418	1.36947	1.09501	2.1166	78.85	-0.2289	0.011	0.2399	1196.4029	0.15867	-419.233868	-419.224469	-419.223525	-419.268566	33.548	
C	 0.2475724831	 1.0665329233	-0.4467727159	-0.333959
N	 0.0132837615	-0.1038631641	 0.3991097781	-0.176598
C	 0.4450922462	 0.0903837891	 1.7833275196	-0.333957
C	-1.2289405834	-0.6979272603	 0.2490840612	 0.283905
C	-1.6350554719	-1.8975468911	-0.2404674324	 0.210697
C	-0.8023305498	-3.0005771929	-0.7973564283	-0.492019
N	-3.0250966689	-1.9804195262	-0.153626182	-0.3157
C	-3.3819834788	-0.854381176	 0.3712746236	 0.070699
O	-2.3761765703	-0.0077519779	 0.6530303838	-0.184329
H	 1.314752392	 1.3110530791	-0.434562669	 0.120254
H	-0.0429214565	 0.8352196147	-1.4741789898	 0.130777
H	-0.3129678254	 1.9559337396	-0.1163551915	 0.113193
H	-0.0993338403	 0.9006529201	 2.2946726874	 0.113196
H	 0.2950593949	-0.8356495478	 2.3431531343	 0.130777
H	 1.5123451632	 0.3345554832	 1.7960463629	 0.120255
H	-0.9407621889	-3.9238425739	-0.2247434208	 0.134991
H	-1.0828751766	-3.2190912769	-1.8332242904	 0.134984
H	 0.2541953367	-2.7245545668	-0.7697915718	 0.130496
H	-4.3819334069	-0.5208930553	 0.6059820009	 0.142338
39.4829	144.039	145.1164	156.197	218.2829	226.949	253.9668	275.891	365.9046	444.5872	501.6812	612.8742	678.0866	695.8096	743.0695	846.6065	939.8842	960.1126	969.4385	1027.9417	1061.3697	1071.322	1117.5976	1162.4262	1178.3333	1191.5405	1228.1372	1288.1023	1325.7098	1372.169	1418.6213	1439.736	1467.3053	1478.1305	1481.7242	1488.4399	1495.2138	1501.4564	1519.6167	1556.547	1705.3336	2974.8735	2979.7477	3037.438	3068.3055	3069.003	3091.313	3120.4467	3122.8208	3130.6259	3258.9526
CN(C)C1=C(C)N=CO1	CN(C)c1c(C)nco1	
InChI=1S/C6H10N2O/c1-5-6(8(2)3)9-4-7-5/h4H,1-3H3	InChI=1S/C6H10N2O/c1-5-6(8(2)3)9-4-7-5/h4H,1-3H3
