21
gdb 41145	2.86561	1.87021	1.43514	0.1639	87.1	-0.2294	0.0184	0.2478	983.0709	0.186375	-349.929907	-349.923181	-349.922237	-349.960384	29.641	
C	-0.004982642	 1.5707680406	-0.1160621147	-0.269129
C	 1.5566166507	 1.4894922472	 0.013560526	-0.343191
C	 1.3432806257	 0.1913006487	 0.8184946697	 0.357169
C	 2.0203458435	-1.1817463374	 1.0443266881	-0.319549
C	 1.0369180404	-1.2907437031	 2.2687153264	-0.063623
C	 1.146274465	 0.2611072294	 2.3538000652	-0.247849
C	-0.3957832057	-1.5840392595	 1.8461258376	-0.058082
C	-0.9488847482	-0.8735366735	 0.855487433	-0.132241
C	-0.0146873073	 0.0262686071	 0.1027375884	 0.009965
H	-0.4470638065	 2.1161557644	 0.7214978232	 0.106959
H	-0.4208619548	 1.9530328284	-1.050779264	 0.09352
H	 2.0223416229	 1.3108466477	-0.9611257567	 0.100576
H	 2.0760072612	 2.3122132245	 0.5116631861	 0.093219
H	 1.9340683648	-1.9223123247	 0.2441026932	 0.090988
H	 3.058591208	-1.1189859453	 1.3848194388	 0.092081
H	 1.3550016344	-1.890558523	 3.1223966698	 0.057919
H	 2.0703953224	 0.5861259919	 2.843447214	 0.088273
H	 0.2913065232	 0.8027632319	 2.7646481662	 0.092922
H	-0.9630042985	-2.3228509046	 2.404927856	 0.085744
H	-1.9791857097	-1.0159435051	 0.541265423	 0.083574
H	 0.1748749204	-0.4185443656	-0.8867107792	 0.080755
213.888	274.3683	350.446	351.5961	441.5117	461.5008	518.7098	562.1644	648.5288	714.2757	732.87	784.7267	827.0378	859.4345	870.9327	884.0186	904.8202	939.6007	958.1693	975.3082	979.553	1006.9243	1065.5417	1085.6806	1090.1224	1118.5336	1120.686	1161.0705	1176.6708	1180.4244	1194.9406	1236.6872	1240.209	1248.2569	1265.3946	1290.3337	1305.4744	1336.6882	1362.3652	1395.0504	1477.1918	1483.5169	1498.6801	1509.2007	1669.8327	2974.5034	3039.7328	3045.3526	3048.9378	3065.6279	3096.2221	3100.7636	3102.3018	3108.0274	3122.9815	3153.8611	3177.8602
C1CC23CC(C2)C=CC13	C1C[C@@]23C[C@@H](C2)C=C[C@@H]13	
InChI=1S/C9H12/c1-2-8-3-4-9(8)5-7(1)6-9/h1-2,7-8H,3-6H2	InChI=1S/C9H12/c1-2-8-3-4-9(8)5-7(1)6-9/h1-2,7-8H,3-6H2/t7-,8-,9+/m0/s1
