19
gdb 45585	2.67152	1.55483	1.20589	3.6135	75.18	-0.2392	-0.0194	0.2198	1071.8198	0.161009	-423.039322	-423.031741	-423.030796	-423.071545	29.798	
O	-0.063211869	-0.071561926	-0.0748924225	-0.297839
C	-0.0817776983	 1.120985853	 0.009248636	 0.396076
C	-1.1879428585	 2.1737397556	 0.2096260645	-0.355053
C	-0.073185711	 3.1353368702	 0.73128764	-0.040894
C	 0.0385139065	 3.1652908563	 2.2657040608	-0.212581
C	 1.4986815619	 3.1328556122	 2.7191600547	-0.075046
O	 2.1338617159	 1.9537558986	 2.2533509072	-0.240287
C	 2.3143093798	 1.9617008838	 0.8500705141	-0.109592
C	 1.0131753339	 2.2009599052	 0.0917268844	-0.120067
H	-1.6045157118	 2.4855638897	-0.7541481354	 0.127557
H	-2.0087665376	 1.9159731212	 0.8833460973	 0.126299
H	-0.0989896495	 4.1464928079	 0.3211761918	 0.074953
H	-0.474577485	 4.0434239039	 2.6727460148	 0.100113
H	-0.4508180888	 2.2820344632	 2.6934968079	 0.11267
H	 2.0417115334	 4.0263310488	 2.3646456993	 0.083545
H	 1.5691623719	 3.1082481479	 3.8103349004	 0.110191
H	 3.0495167561	 2.7366389894	 0.5740948009	 0.088038
H	 2.7318702833	 0.9859988947	 0.5829295931	 0.127993
H	 1.2364776169	 2.5218103942	-0.9338156994	 0.103923
87.6422	127.7189	204.9166	349.1701	361.3162	407.3067	433.9058	474.5741	537.0556	671.5614	704.1549	730.9108	788.3947	816.2634	875.4785	924.495	946.625	985.0946	1028.1583	1038.6854	1050.3701	1061.9127	1107.2693	1140.8292	1159.5202	1180.7284	1216.3243	1250.2213	1253.9596	1283.8595	1312.3421	1331.7338	1344.6423	1383.1528	1388.9715	1420.7605	1447.9063	1479.5547	1485.4267	1499.9907	1893.0071	2955.2236	2961.1394	3032.6091	3034.8273	3054.1681	3072.3136	3082.6286	3086.4049	3093.3975	3116.0086
O=C1CC2CCOCC12	O=C1C[C@H]2CCOC[C@@H]12	
InChI=1S/C7H10O2/c8-7-3-5-1-2-9-4-6(5)7/h5-6H,1-4H2	InChI=1S/C7H10O2/c8-7-3-5-1-2-9-4-6(5)7/h5-6H,1-4H2/t5-,6-/m1/s1
