15
gdb 21244	3.37849	1.90319	1.23273	2.2275	64.09	-0.1943	0.0322	0.2264	940.3969	0.12045	-395.976571	-395.968602	-395.967658	-396.009279	28.25	
C	-0.0456910823	 1.3948951094	-0.024791356	-0.249449
O	 0.0143364979	-0.0182467247	-0.0401216137	-0.279829
C	 0.6383186159	-0.5828552668	 1.0308088879	 0.234226
C	 0.7087582581	-1.9532285828	 1.222431327	 0.23067
N	 0.1773427736	-3.0370021695	 0.5044106631	-0.616828
N	 1.3991220898	-2.1165993944	 2.3821958484	-0.215946
N	 1.7927946189	-0.9605507733	 2.9458960452	-0.238575
C	 1.3212178842	-0.0158388137	 2.1288458941	-0.122759
H	 0.9586494084	 1.8394750812	-0.0476482213	 0.121758
H	-0.5908741047	 1.6957562852	-0.9211959342	 0.130906
H	-0.5752210832	 1.7640508565	 0.8639189269	 0.122521
H	-0.5573373219	-2.7078677658	-0.1122936963	 0.256579
H	 0.8752948666	-3.4967502147	-0.0739276829	 0.248821
H	 1.6014054959	-2.9903515405	 2.837807492	 0.271035
H	 1.4981607628	 1.024343374	 2.3550588097	 0.106871
64.5056	114.6625	191.3577	205.7414	264.4538	310.8647	354.8055	480.4169	536.8813	626.983	673.7785	698.4918	756.4779	839.0558	845.1357	947.0642	1081.4765	1129.3981	1153.5002	1181.7482	1208.6054	1237.7099	1269.0604	1340.4632	1395.1502	1436.7802	1481.9178	1486.4977	1509.0822	1560.0707	1643.2639	1672.2778	2997.1464	3052.5559	3130.2109	3250.7441	3489.8368	3581.1934	3672.0553
COC1=C(N)NN=C1	COc1c(N)[nH]nc1	
InChI=1S/C4H7N3O/c1-8-3-2-6-7-4(3)5/h2H,1H3,(H3,5,6,7)	InChI=1S/C4H7N3O/c1-8-3-2-6-7-4(3)5/h2H,1H3,(H3,5,6,7)
