18
gdb 114586	2.62014	1.1995	0.96421	4.2495	77.55	-0.268	0.0181	0.2862	1245.5878	0.147954	-401.930403	-401.921749	-401.920805	-401.963956	32.201	
O	-0.0538541637	 1.3993003951	-0.195173338	-0.419337
C	 0.0378373843	 0.0194146449	 0.123974809	-0.102266
C	-1.3581365695	-0.559175895	-0.016201208	-0.039732
C	-2.0179427188	-0.6317710423	-1.4328994918	-0.242398
C	-2.2297419149	-2.1399157465	-1.2547564966	-0.095227
C	-0.9251455596	-2.8327587313	-1.0462084725	-0.322864
C	-1.531222598	-2.0859428966	 0.1275319408	 0.195517
C	-1.8827739491	-2.7511310978	 1.3383068269	 0.186488
N	-2.1699617589	-3.2732253199	 2.3315157235	-0.353302
H	 0.8215607191	 1.7889609755	-0.11463909	 0.291389
H	 0.7381054679	-0.4982374458	-0.5501045502	 0.085045
H	 0.3969534712	-0.1375650612	 1.1537081322	 0.101174
H	-2.0223070505	-0.038967881	 0.6776697481	 0.104431
H	-2.9444090568	-0.059752554	-1.4887964462	 0.120552
H	-1.3791126905	-0.3474112006	-2.2739602166	 0.111802
H	-3.1318376698	-2.6866739792	-1.4975095619	 0.115766
H	-0.9701707934	-3.9127074112	-0.9587082558	 0.140615
H	-0.018120179	-2.4565429232	-1.5106675929	 0.122346
80.024	126.8695	166.3661	168.0998	237.9011	272.1757	378.3775	412.8204	440.8304	516.9795	578.0247	615.1664	725.5564	819.8527	842.147	867.1116	896.849	962.7672	1007.5832	1031.5201	1042.8836	1072.3894	1088.5116	1101.6326	1133.8328	1168.1516	1199.5387	1214.8994	1251.3374	1264.848	1279.3715	1293.8174	1367.6281	1377.5814	1465.6414	1483.2344	1498.5633	1521.4837	2340.9956	2970.2221	2998.936	3066.0105	3087.779	3125.9209	3130.9379	3200.41	3219.2299	3831.5935
OCC1CC2CC12C#N	OC[C@H]1C[C@H]2C[C@@]12C#N	
InChI=1S/C7H9NO/c8-4-7-2-5(7)1-6(7)3-9/h5-6,9H,1-3H2	InChI=1S/C7H9NO/c8-4-7-2-5(7)1-6(7)3-9/h5-6,9H,1-3H2/t5-,6+,7-/m0/s1
