14
gdb 129074	2.68536	1.70137	1.0415	5.8531	78.6	-0.2383	-0.0695	0.1688	1053.599	0.103575	-432.859358	-432.852054	-432.851109	-432.892477	27.115	
N	-0.0523830901	 1.0534953635	 0.9967628445	-0.429961
C	-0.0551303971	 0.1294371387	 0.1115272795	 0.148021
C	 1.203446639	-0.2823637918	-0.5429077026	-0.022424
N	 1.55428749	-1.1395943012	-1.4373107881	-0.199942
N	 0.7125953574	-1.9748572483	-2.0645905985	-0.242125
C	-0.6354590785	-2.1595804361	-1.9635573226	 0.051604
C	-1.5535892561	-1.5462754783	-1.1858934255	-0.205795
C	-1.420272687	-0.4850135696	-0.1957887165	 0.328999
O	-2.3987044964	-0.0777867256	 0.3966581278	-0.306458
H	 0.896845538	 1.410148151	 1.1427878928	 0.224409
H	 2.0612498088	 0.2837304511	-0.1770366056	 0.118256
H	 1.2028706522	-2.5570242176	-2.7241356273	 0.279781
H	-0.9717589783	-2.9389138675	-2.6414677858	 0.133936
H	-2.577154902	-1.8851004884	-1.2995144921	 0.121697
23.2246	107.6115	355.4879	359.8877	372.0622	396.4788	445.7591	524.1338	549.6478	648.6745	656.8903	765.5577	793.6747	847.2567	886.0526	900.2833	969.0207	989.3278	995.2316	1043.542	1146.5481	1265.4039	1321.8645	1373.1145	1435.4651	1450.0913	1533.1268	1647.7613	1664.3827	1687.5262	1753.5043	3116.0646	3173.9938	3202.6741	3420.5183	3642.138
N=C1C=NNC=CC1=O	[NH]c1cn[nH]ccc1=O	
InChI=1S/C5H5N3O/c6-4-3-8-7-2-1-5(4)9/h1-3,6-7H	InChI=1S/C5H10N3O/c6-4-3-8-7-2-1-5(4)9/h4,6-8H,1-3H2
