18
gdb 60634	2.51006	1.3433	1.03208	5.6144	67.85	-0.2273	0.0012	0.2286	1175.7477	0.148129	-476.233515	-476.22482	-476.223876	-476.267355	32.923	
N	 0.1298370297	 1.002971734	 0.040223522	-0.544589
H	-0.1831730959	 0.0992243109	-0.2940440921	 0.252605
H	 1.1157956467	 0.9162630286	 0.2692737395	 0.251753
H	-0.1945653649	 2.6677700217	-0.5711564443	 0.312432
C	-0.6331035919	 1.4321430917	 1.2338856716	-0.155892
C	-0.0157307119	 0.9494434899	 2.5440695084	-0.081763
C	 0.740908349	 1.8450297749	 3.5227550662	-0.356796
C	-0.5823583586	 1.2422201047	 3.9190765916	 0.143642
O	-1.7303469736	 1.985991279	 4.122398712	-0.433133
C	-0.8573347888	 2.9604953821	 1.1155507815	 0.44365
O	-0.5409293548	 3.4516997979	-0.0729145068	-0.347751
O	-1.3130083568	 3.6524840821	 1.9994691982	-0.35828
H	-1.6408525819	 1.0040519293	 1.1428157055	 0.135238
H	 0.3798892151	-0.0569554982	 2.4237119497	 0.082939
H	 1.6571797818	 1.4656047742	 3.9628702851	 0.108595
H	 0.7460643723	 2.9108357307	 3.3237920769	 0.137736
H	-0.552560745	 0.4106811032	 4.6171749738	 0.101387
H	-1.7223111403	 2.7285701833	 3.4904114912	 0.308226
60.4659	74.1745	207.1841	218.7233	276.8515	301.7566	370.7315	412.8794	475.6107	509.6857	550.0733	647.6755	671.6693	743.0343	770.0048	801.4858	842.7417	868.7809	934.3675	956.701	989.3293	1026.8526	1059.6107	1097.0322	1132.2016	1141.0704	1158.9111	1195.5107	1245.0557	1257.0681	1302.0893	1363.9035	1378.3878	1400.8767	1455.641	1477.0332	1504.9694	1653.1182	1823.7096	3023.4746	3118.7492	3132.4694	3153.5711	3223.9911	3328.4505	3507.4445	3581.2773	3594.9192
[NH3+]C(C1CC1O)C([O-])=O	N[C@@H]([C@H]1C[C@H]1O)C(=O)O	
InChI=1S/C5H9NO3/c6-4(5(8)9)2-1-3(2)7/h2-4,7H,1,6H2,(H,8,9)	InChI=1S/C5H9NO3/c6-4(5(8)9)2-1-3(2)7/h2-4,7H,1,6H2,(H,8,9)/t2-,3+,4-/m0/s1
