19
gdb 88126	2.59705	1.49098	1.11756	2.5626	77.42	-0.2432	0.0182	0.2615	1139.146	0.160995	-419.213768	-419.205405	-419.204461	-419.246744	31.761	
C	-0.1214890909	 1.5155998374	-0.0770739223	-0.400266
C	-0.0428323591	 0.017311591	 0.0729729945	-0.043797
N	 1.2574311503	-0.6147544465	-0.1749302234	-0.384648
C	 0.7118483342	-0.6515199585	 1.1804597492	 0.249486
C	 1.4001760015	 0.0158157262	 2.3572143836	-0.326367
C	 0.6868797465	-0.6492439723	 3.5438652729	-0.092574
O	 0.2375415843	-1.9383447362	 3.0692202053	-0.244203
C	 0.1896500833	-1.9479947707	 1.7111274974	 0.372261
N	-0.2009974698	-2.9090603609	 0.9881689648	-0.570224
H	 0.8101840717	 1.9929057571	 0.237114672	 0.127502
H	-0.292159302	 1.7811222117	-1.1257109689	 0.12841
H	-0.9473355873	 1.9290048506	 0.5121435032	 0.116439
H	-0.9185164375	-0.5350958349	-0.2631663182	 0.107326
H	 1.1152409377	-1.5389556731	-0.5842524538	 0.249262
H	 2.4670319251	-0.2285796756	 2.3517975371	 0.126695
H	 1.3004449866	 1.1024131878	 2.3725469699	 0.116941
H	 1.3306641522	-0.8240824365	 4.407952085	 0.125156
H	-0.1897627696	-0.0763066995	 3.867967437	 0.116856
H	-0.5151647571	-3.6994607971	 1.5503868849	 0.225746
92.6174	159.8227	174.3196	184.3248	218.6044	292.1151	385.0377	456.7158	492.616	561.236	678.705	689.9684	710.2671	811.0758	852.0086	863.2208	888.0846	950.4573	976.7419	1012.519	1043.8464	1054.1482	1086.5111	1100.4292	1118.8847	1135.4314	1203.1478	1230.5129	1256.9979	1262.1328	1295.992	1335.0235	1360.0426	1405.196	1414.6531	1466.4797	1487.0038	1493.0915	1500.1981	1524.1741	1768.8528	3035.3993	3038.5107	3060.7126	3097.8193	3110.2658	3115.4712	3123.4722	3135.4357	3461.4631	3496.9737
CC1NC11CCOC1=N	C[C@H]1N[C@]21CCO[C]2[NH]	
InChI=1S/C6H10N2O/c1-4-6(8-4)2-3-9-5(6)7/h4,7-8H,2-3H2,1H3	InChI=1S/C6H10N2O/c1-4-6(8-4)2-3-9-5(6)7/h4,7-8H,2-3H2,1H3/t4-,6+/m1/s1
