19
gdb 120177	5.06018	0.85807	0.82971	3.1056	77.24	-0.2393	0.0053	0.2446	1440.5367	0.158363	-422.983451	-422.974821	-422.973876	-423.017479	31.971	
C	-0.0875228828	 1.4914037082	-0.013864373	-0.386849
C	-0.1389782775	-0.0010864789	 0.2608882215	-0.048829
O	-1.3145499182	-0.5263851687	-0.3408148796	-0.26434
C	-1.4289068125	-1.9099869727	-0.2319826072	 0.180543
C	-1.984096624	-2.5229077794	 1.1213481372	-0.231635
C	-3.3594683534	-1.883254594	 0.7080438067	-0.234456
C	-2.819991233	-2.4766419134	-0.6470188785	-0.225689
C	-2.432082544	-3.6798189579	 0.2251906241	 0.448248
O	-2.4922789797	-4.8704415683	 0.2234257937	-0.323254
H	 0.8104312241	 1.9283632692	 0.4326827001	 0.119316
H	-0.0698016381	 1.6826696643	-1.0903677593	 0.130542
H	-0.963589704	 1.991034299	 0.4091050312	 0.128612
H	 0.7484996303	-0.5044906272	-0.1553885876	 0.094362
H	-0.1477776419	-0.1986700887	 1.3439364231	 0.095499
H	-0.5459351133	-2.410094762	-0.6516981851	 0.083422
H	-1.517041666	-2.5461438499	 2.1029720773	 0.092119
H	-4.262319561	-2.3304042365	 1.1249588522	 0.11417
H	-3.3747482772	-0.7964100374	 0.7380583039	 0.130852
H	-3.2824879577	-2.4417913856	-1.6301822305	 0.097365
62.6907	82.967	116.7432	183.7901	243.7706	326.8368	369.0073	395.8886	497.3897	581.5713	696.7415	718.6422	769.5419	800.891	821.5027	875.4004	905.2965	935.2107	978.6205	1028.0782	1033.0554	1055.3834	1068.2031	1121.824	1133.1419	1149.713	1152.0838	1185.3546	1193.4759	1199.5961	1236.3704	1251.2894	1298.9507	1387.27	1407.6748	1443.9709	1483.7701	1498.9819	1505.2894	1527.6483	1920.4934	2971.9991	3003.9087	3017.3332	3046.6907	3094.1207	3121.7319	3124.2142	3151.4795	3157.6142	3179.9668
CCOC1C2CC1C2=O	CCO[C@H]1[C@H]2C[C@@H]1C2=O	
InChI=1S/C7H10O2/c1-2-9-7-4-3-5(7)6(4)8/h4-5,7H,2-3H2,1H3	InChI=1S/C7H10O2/c1-2-9-7-4-3-5(7)6(4)8/h4-5,7H,2-3H2,1H3/t4-,5+,7-
