18
gdb 10932	4.25936	1.4104	1.29162	0.8585	78.44	-0.2452	0.0537	0.2988	1016.7473	0.152766	-310.611789	-310.603874	-310.60293	-310.643681	30.792	
C	-0.1021938359	 1.5671063772	 0.0332008119	-0.499259
C	 0.0316533933	 0.0720049897	 0.0138680555	 0.38485
C	-0.8391893879	-0.8463232455	 0.8279611312	-0.338764
C	 0.6507642003	-0.8845328919	 1.0359928722	-0.089992
C	 1.3015909353	-1.7207094708	-0.0873776497	-0.166166
C	 0.6684364911	-0.725042888	-1.1345914928	-0.304291
C	 2.7509222528	-1.7457721251	-0.079361147	 0.301099
C	 3.953660512	-1.7558581197	-0.0658329465	-0.449916
H	 0.8428668717	 2.0557280993	-0.2299637166	 0.119926
H	-0.862081022	 1.9074503172	-0.6811607074	 0.11927
H	-0.3998129559	 1.9248075619	 1.0244766061	 0.117521
H	-1.4021415587	-0.3656607491	 1.6223644065	 0.109165
H	-1.3529236834	-1.6892620781	 0.3685104335	 0.101235
H	 1.1156783623	-0.6733008581	 1.9912806756	 0.0935
H	 0.9163644415	-2.7457604285	-0.1493980729	 0.097361
H	-0.0160917866	-1.1649788682	-1.8674052824	 0.095501
H	 1.4439316816	-0.1653224442	-1.660643295	 0.117438
H	 5.0151380887	-1.7731275081	-0.0560020122	 0.191524
90.7824	160.0724	212.2399	257.6565	310.858	357.5699	415.8922	467.9701	519.878	610.5512	621.7934	627.2575	741.1628	801.7532	830.5515	875.8566	933.5043	955.0762	984.7886	1020.2032	1032.6547	1051.7215	1075.2469	1093.2402	1123.7048	1163.8699	1214.0502	1237.7899	1254.0281	1291.647	1341.3545	1391.4874	1424.5129	1479.7222	1485.93	1498.0081	1506.2916	2233.8264	3019.387	3024.5979	3047.1672	3077.8968	3094.808	3096.108	3118.5686	3184.1127	3193.9967	3505.267
CC12CC1C(C2)C#C	C[C@]12C[C@H]1[C@@H](C2)C#C	
InChI=1S/C8H10/c1-3-6-4-8(2)5-7(6)8/h1,6-7H,4-5H2,2H3	InChI=1S/C8H10/c1-3-6-4-8(2)5-7(6)8/h1,6-7H,4-5H2,2H3/t6-,7+,8+/m1/s1
