16
gdb 53054	6.25287	0.73306	0.66157	4.4448	92.3	-0.234	-0.0517	0.1824	1653.5295	0.12413	-400.758556	-400.749783	-400.748838	-400.793826	30.808	
C	-0.1023523571	 1.4417988209	 0.0107917274	-0.510626
C	-0.0044089124	-0.0079791331	 0.0030100279	 0.261058
C	 0.090536134	-1.2119791255	-0.0036924044	-0.159141
C	 0.1429559622	-2.6186522127	-0.0115073222	 0.178683
C	 1.2051179316	-3.4424597923	-0.0225508619	-0.306462
C	 0.742558546	-4.8298263038	-0.0270809956	 0.43135
N	 1.4593817356	-5.8740789851	-0.0369406444	-0.559354
O	-0.6367257541	-4.8188583441	-0.0185367617	-0.249994
C	-1.107438838	-3.4743164937	-0.0084486022	-0.184554
H	 0.8892766254	 1.9063241389	 0.0037582435	 0.159486
H	-0.6494778902	 1.804497144	-0.8665364807	 0.158577
H	-0.6328941534	 1.7960866978	 0.9016466058	 0.158589
H	 2.2503556962	-3.1751933292	-0.0277012253	 0.132336
H	 0.8731637654	-6.7100829896	-0.0377135352	 0.222456
H	-1.7219742544	-3.3055477861	 0.8847773214	 0.133795
H	-1.7329613167	-3.2961346263	-0.8921623824	 0.133802
20.239	86.4442	86.6999	189.7244	241.9754	290.6153	385.1771	409.5131	447.1984	543.2559	552.3558	691.5326	697.3697	860.2549	867.4086	897.3561	913.4899	977.8762	1027.2237	1034.6477	1047.2756	1052.2039	1096.0509	1198.6761	1233.4859	1261.0493	1329.5694	1384.2958	1412.4327	1472.6075	1473.6038	1502.5771	1661.9172	1752.215	2348.2949	3022.3822	3028.7975	3056.9477	3089.2781	3096.0115	3265.3188	3481.4283
CC#CC1=CC(=N)OC1	CC#C[C]1C=C([NH])OC1	
InChI=1S/C7H7NO/c1-2-3-6-4-7(8)9-5-6/h4,8H,5H2,1H3	InChI=1S/C7H7NO/c1-2-3-6-4-7(8)9-5-6/h4,8H,5H2,1H3
