19
gdb 126392	3.41054	1.05805	0.8624	2.511	79.85	-0.211	0.0428	0.2538	1384.3809	0.158993	-419.237342	-419.227582	-419.226637	-419.273109	34.507	
C	 0.1245382792	 1.3613629496	-0.49899739	-0.368775
C	-0.1265616325	 0.1082719953	 0.3560748351	-0.281504
C	-1.4915951404	-0.4795456615	 0.1580240677	 0.382914
N	-2.3937620537	-0.4254641527	 1.1326508943	-0.349081
N	-3.5036849326	-1.0339636301	 0.6254009064	-0.016824
C	-4.7165312386	-1.1230104022	 1.4049322097	-0.324721
C	-3.3004317251	-1.4496067051	-0.6441172668	 0.462898
O	-4.3128506332	-2.0703270904	-1.294086869	-0.436198
C	-2.008789183	-1.1181273055	-0.9981094575	-0.47262
H	 1.130243241	 1.7573675645	-0.3255280587	 0.108829
H	 0.0303228129	 1.1396557023	-1.5670043078	 0.112782
H	-0.5981914171	 2.1466989799	-0.2575397628	 0.12368
H	 0.6360944218	-0.6458262075	 0.1235270523	 0.10018
H	-0.0189749099	 0.3539688886	 1.416938454	 0.115652
H	-5.2713412343	-0.1783843287	 1.3889737848	 0.137844
H	-5.3465199706	-1.9130048741	 0.9938530808	 0.150086
H	-4.4535148254	-1.3603592614	 2.4372250337	 0.150257
H	-3.994973163	-2.3492185892	-2.1580024198	 0.312092
H	-1.5159545055	-1.3148916119	-1.9368184663	 0.092508
38.5167	48.2589	121.6949	169.9561	199.6507	252.6639	274.1006	281.2557	321.1557	426.8998	512.9724	592.7729	666.8658	671.2397	715.5165	743.4402	791.8636	823.4131	964.6347	1014.8749	1044.446	1075.734	1096.9869	1135.0426	1152.0398	1184.0053	1275.4162	1293.8	1305.0104	1351.7243	1405.7029	1435.4658	1453.9445	1479.2875	1486.346	1492.6827	1497.1965	1508.2706	1513.6408	1594.8198	1603.7972	3026.3133	3034.7046	3040.2889	3081.5894	3105.1398	3112.4286	3115.3036	3156.4435	3252.562	3848.1967
CCC1=NN(C)C(O)=C1	CCc1nn(C)c(O)c1	
InChI=1S/C6H10N2O/c1-3-5-4-6(9)8(2)7-5/h4,9H,3H2,1-2H3	InChI=1S/C6H10N2O/c1-3-5-4-6(9)8(2)7-5/h4,9H,3H2,1-2H3
