17
gdb 55878	3.27358	0.97156	0.81432	1.7004	74.53	-0.2551	-0.0241	0.231	1391.6822	0.133526	-418.004032	-417.994623	-417.993679	-418.039348	32.86	
C	 0.332483852	 1.3694696503	-0.2049699978	-0.478054
C	 0.1042144013	-0.0812502705	 0.1704834168	 0.384263
O	 0.7953525323	-0.6685625234	 0.9668490526	-0.28196
C	-1.0893736686	-0.7522621389	-0.5123084321	-0.271267
N	-1.0077673052	-2.1980646239	-0.418909838	-0.062395
C	-1.3476891101	-2.8096488855	 0.8459670894	-0.214697
C	-2.2528588401	-2.9791536692	-0.3410541683	-0.16
C	-3.5371529755	-2.3223440604	-0.3352246862	 0.285889
N	-4.5625294038	-1.7864016915	-0.3570747921	-0.336406
H	 0.7367553528	 1.422547281	-1.2229394005	 0.150748
H	-0.6069276376	 1.9324710971	-0.2046847421	 0.14158
H	 1.0438330353	 1.8234969779	 0.4855532754	 0.149504
H	-1.9996200596	-0.3265592973	-0.05090005	 0.136414
H	-1.1211358832	-0.4634622373	-1.5691417257	 0.133837
H	-0.7224927997	-3.6398503003	 1.1580709054	 0.141624
H	-1.7103302297	-2.1733253336	 1.6499660632	 0.137874
H	-2.2356390307	-3.9079153545	-0.9035598799	 0.143046
51.5138	76.8342	112.0669	115.3026	183.4224	222.0163	316.6308	350.5339	400.2211	482.8657	552.668	577.9161	632.3777	765.3024	830.9059	840.0262	863.7987	918.76	970.2619	1029.5846	1048.6713	1083.058	1123.1194	1130.4775	1152.8488	1189.4988	1273.8641	1327.295	1369.1747	1372.9868	1386.7609	1460.3745	1467.342	1475.6794	1508.2024	1823.1758	2347.3685	2946.9199	3036.4438	3063.7473	3098.1691	3114.0449	3154.9762	3156.1647	3207.7037
CC(=O)CN1CC1C#N	CC(=O)CN1C[C@H]1C#N	
InChI=1S/C6H8N2O/c1-5(9)3-8-4-6(8)2-7/h6H,3-4H2,1H3	InChI=1S/C6H8N2O/c1-5(9)3-8-4-6(8)2-7/h6H,3-4H2,1H3/t6-,8?/m1/s1
