20
gdb 19194	3.01426	1.98242	1.63087	1.5891	73.71	-0.2424	0.0722	0.3145	897.9359	0.178785	-348.992775	-348.98521	-348.984266	-349.024035	30.256	
C	-0.1665588975	 1.6143887801	-0.0470990145	-0.441509
C	 0.0302322392	 0.1054498493	-0.0169387408	 0.033047
C	 1.1776980211	-0.604305973	-0.8113139204	-0.073055
C	 2.4480328987	 0.0567464527	-0.2464518883	-0.218706
C	 2.083172094	 0.0393700742	 1.2800390781	-0.218723
C	 0.6980903839	-0.6270518626	 1.1950947276	-0.073119
C	 1.0016487658	-1.7902540736	 0.1938144027	 0.191022
O	-0.0064143771	-2.7377024878	-0.0578967787	-0.459806
H	 0.7483915871	 2.1677806603	 0.1797233277	 0.120102
H	-0.5115602869	 1.9395404345	-1.035085208	 0.115998
H	-0.9254115427	 1.9199794569	 0.6820109541	 0.115973
H	-0.9330075887	-0.3619074491	-0.2525010051	 0.047743
H	 1.1221068187	-0.762159619	-1.8896955234	 0.056675
H	 3.3445607372	-0.5292664299	-0.4682746099	 0.098191
H	 2.6111524393	 1.0661821447	-0.6326454522	 0.098116
H	 2.7854487446	-0.5560199329	 1.8705472374	 0.098194
H	 2.0490204376	 1.0393712296	 1.7199753092	 0.098115
H	 0.1617036719	-0.8077333257	 2.12813208	 0.056676
H	 1.9004176126	-2.3788260836	 0.401981214	 0.073775
H	-0.831729259	-2.2818590451	-0.2494379294	 0.28129
168.2177	185.1888	230.6648	274.6665	297.0211	322.8219	374.6854	488.9358	589.9066	660.4063	723.9096	796.1286	828.8295	870.6314	893.0234	903.651	940.1015	965.7394	1004.8433	1022.6141	1040.0399	1049.7186	1085.109	1128.1595	1134.2294	1179.9585	1186.7622	1210.4157	1224.3233	1257.105	1270.7503	1283.4375	1290.6452	1315.0678	1333.0782	1406.197	1415.7768	1449.4074	1486.1756	1495.5422	1510.6588	1520.2554	3024.5948	3034.3869	3052.6552	3060.1462	3064.7336	3086.8609	3088.8124	3101.0072	3104.64	3105.77	3119.5359	3819.6695
CC1C2CCC1C2O	C[C@H]1[C@H]2CC[C@@H]1[C@H]2O	
InChI=1S/C7H12O/c1-4-5-2-3-6(4)7(5)8/h4-8H,2-3H2,1H3	InChI=1S/C7H12O/c1-4-5-2-3-6(4)7(5)8/h4-8H,2-3H2,1H3/t4-,5+,6-,7-
