17
gdb 126100	6.69806	0.66003	0.60533	2.9102	90.4	-0.2206	-0.0107	0.2099	1815.8344	0.137593	-380.877458	-380.868739	-380.867795	-380.912486	31.06	
C	 0.0846440609	 1.5195826934	 0.0090358198	-0.36598
C	-0.0188698316	-0.0170318695	 0.0030426797	-0.329538
C	-1.3967299574	-0.4923695792	 0.0126195193	 0.196921
C	-2.5470966059	-0.859531594	 0.0206493855	-0.054557
C	-3.88442757	-1.3062807965	 0.030536244	 0.240372
C	-5.0966074661	-0.6269741723	 0.0423083302	-0.327234
C	-6.0762303315	-1.6359700949	 0.0477601678	-0.01583
N	-5.5379205315	-2.8551070978	 0.0399162876	-0.2112
N	-4.2158860238	-2.6323417295	 0.0295216603	-0.280508
H	 1.1340839016	 1.8274752058	 0.0014883099	 0.118756
H	-0.4069920793	 1.9455271317	-0.8694942061	 0.132364
H	-0.3919549089	 1.9376219872	 0.8995690289	 0.132364
H	 0.4975111729	-0.4164989699	-0.8797178629	 0.133883
H	 0.5123387945	-0.424368737	 0.8733157036	 0.133881
H	-5.2297326529	 0.4418338021	 0.0462615985	 0.108839
H	-7.1507041583	-1.5271939263	 0.056935754	 0.112319
H	-3.5779370728	-3.4105918535	 0.0219867601	 0.275148
27.286	74.2448	102.2217	183.935	216.2924	307.6087	420.8038	461.433	498.9759	527.1325	570.6158	681.6302	706.0985	787.6629	812.3467	881.606	895.2672	936.2772	997.4344	1058.8359	1073.693	1097.6662	1103.5694	1145.9353	1262.9505	1283.8453	1287.8312	1343.1917	1367.4071	1410.9882	1425.9591	1472.1872	1474.6908	1495.2432	1505.6979	1592.4536	2350.9058	3016.758	3043.5809	3047.5205	3122.0221	3126.9712	3246.7424	3280.3482	3670.3021
CCC#CC1=CC=NN1	CCC#Cc1ccn[nH]1	
InChI=1S/C7H8N2/c1-2-3-4-7-5-6-8-9-7/h5-6H,2H2,1H3,(H,8,9)	InChI=1S/C7H8N2/c1-2-3-4-7-5-6-8-9-7/h5-6H,2H2,1H3,(H,8,9)
