16
gdb 46486	4.23733	1.22298	1.04171	3.5167	76.21	-0.2516	-0.0462	0.2054	1123.6944	0.125407	-437.87998	-437.872588	-437.871644	-437.911996	28.481	
N	-0.0449497588	 1.2569474798	 0.3279472432	-0.516608
C	 0.0003811789	 0.0332008577	-0.0134049067	 0.36907
O	 1.1880176291	-0.614468981	-0.207149705	-0.260429
C	 1.1790455023	-1.8120294977	-0.9897288505	-0.16584
C	 0.0593598302	-2.7579292341	-0.6220708487	 0.368478
C	 0.1075511588	-4.1458061323	-1.1078005234	-0.23581
O	 0.3835608476	-3.8566093229	 0.2582015317	-0.268345
C	-1.2206984092	-2.0728825867	-0.3501087975	-0.143045
C	-1.2323626576	-0.7575885885	-0.1145142731	-0.108592
H	 0.9018013236	 1.6395476876	 0.3768046118	 0.223586
H	 1.0913765766	-1.5429393936	-2.0517641677	 0.117723
H	 2.1469619049	-2.2888746569	-0.8237261985	 0.133776
H	-0.8229004264	-4.6780847507	-1.3030974321	 0.121436
H	 0.9602178132	-4.4746495226	-1.7024353123	 0.11932
H	-2.1297028071	-2.6655759512	-0.3311652802	 0.114787
H	-2.1438835061	-0.205712157	 0.0788863689	 0.130492
76.2087	181.0637	235.5292	298.1339	359.6228	402.4716	432.1394	473.4074	581.3727	689.7217	693.861	779.0067	805.1861	833.6151	908.9286	914.5415	922.3394	981.9039	1009.0277	1034.4102	1043.0869	1124.815	1131.419	1164.6118	1178.2245	1276.9698	1296.6017	1341.0454	1350.186	1430.8244	1440.8278	1490.4841	1526.4921	1681.5713	1727.1821	3010.038	3074.2315	3117.1066	3160.5052	3181.624	3219.7571	3467.1876
N=C1OCC2(CO2)C=C1	[NH]C1=C[CH][C@]2(CO1)CO2	
InChI=1S/C6H7NO2/c7-5-1-2-6(3-8-5)4-9-6/h1-2,7H,3-4H2	InChI=1S/C6H7NO2/c7-5-1-2-6(3-8-5)4-9-6/h1-2,7H,3-4H2/t6-/m0/s1
