18
gdb 86921	3.38422	0.88348	0.7615	3.4247	74.96	-0.2436	-0.0365	0.2071	1484.3799	0.145005	-439.089131	-439.07956	-439.078616	-439.125104	33.286	
C	-0.0295364531	 1.578328563	-0.0098995523	-0.386934
C	-0.0343025998	 0.0611864658	 0.0933396593	-0.065148
N	 0.8655475575	-0.6720971162	-0.84757216	-0.344521
C	 1.4387458056	-1.5288743437	 0.2280853532	-0.110208
C	 2.9695063557	-1.6127015567	 0.2800211705	-0.267373
C	 3.5191898779	-2.3536589405	-0.9195751704	 0.14759
O	 4.1263601728	-3.3923900716	-0.8640948999	-0.234873
C	 0.749352422	-0.5954029869	 1.2440117569	 0.38154
O	 0.8491889228	-0.4072284781	 2.4179106264	-0.288647
H	 0.994642877	 1.9602506144	-0.0078057291	 0.127872
H	-0.5159060525	 1.9062493835	-0.9335982978	 0.124759
H	-0.5690826843	 2.0135061042	 0.8368922292	 0.134781
H	-1.0683298611	-0.3181671007	 0.0922943734	 0.100533
H	 0.3763857719	-1.1862770183	-1.5709891034	 0.227783
H	 1.0058740673	-2.5394365345	 0.2783890535	 0.109635
H	 3.3711968977	-0.5919254029	 0.2730928043	 0.122611
H	 3.2861188093	-2.1207907126	 1.1948234915	 0.134677
H	 3.3040547335	-1.8643069483	-1.8958612551	 0.085922
43.5541	57.3401	83.5384	139.0998	191.5028	205.2134	255.6886	379.8856	388.432	475.1909	539.1453	589.509	650.5621	756.4471	829.2655	851.9364	872.3982	958.7826	999.0965	1005.6205	1064.2616	1072.0342	1092.3405	1115.6502	1147.6964	1176.8557	1219.5456	1261.7702	1309.6725	1324.1892	1368.6912	1378.6312	1404.4564	1422.9157	1453.903	1483.9953	1495.0366	1830.9051	1913.3686	2883.8449	2983.5629	2995.1101	3037.9573	3042.2545	3114.5184	3114.892	3125.6804	3543.7443
CC1NC(CC=O)C1=O	C[C@H]1N[C@@H](CC=O)C1=O	
InChI=1S/C6H9NO2/c1-4-6(9)5(7-4)2-3-8/h3-5,7H,2H2,1H3	InChI=1S/C6H9NO2/c1-4-6(9)5(7-4)2-3-8/h3-5,7H,2H2,1H3/t4-,5+/m1/s1
