16
gdb 16351	2.69986	2.19682	1.38465	3.4836	65.74	-0.2425	-0.0379	0.2046	903.9577	0.128683	-383.725153	-383.717427	-383.716483	-383.757288	28.476	
C	-0.5174631385	 1.3865292937	 0.0104808746	-0.414615
C	 0.0706123331	-0.0165787296	-0.0340265024	-0.076712
C	 1.4110325274	-0.2308136817	-0.8141429564	-0.376315
C	 1.9700621589	-0.9902078439	 0.4085361098	 0.337329
O	 2.931191878	-1.6710001103	 0.6140702017	-0.297621
C	 0.7632225454	-0.5625547946	 1.2328937174	 0.334195
C	 0.7785282552	-0.0399813025	 2.6108622881	-0.24757
O	 0.1652428919	-1.2854456388	 2.2870397904	-0.258248
H	 0.2285548537	 2.1174476369	 0.3413561205	 0.117051
H	-0.8730356404	 1.6945789178	-0.977886369	 0.125342
H	-1.3683276987	 1.4368428196	 0.6980967561	 0.126986
H	-0.6828272824	-0.7363880662	-0.3700424951	 0.099638
H	 1.3640166394	-0.8086695855	-1.7396794744	 0.136679
H	 1.9613000372	 0.6964434954	-1.0063097258	 0.132556
H	 1.6949743727	-0.106832244	 3.1946906584	 0.135655
H	 0.0964334171	 0.7659090537	 2.8770155063	 0.125652
71.8225	185.4756	210.3311	227.758	256.6212	288.4741	440.7021	490.8797	549.7657	619.163	667.583	802.2737	831.8333	871.9004	920.0564	936.3871	1017.0643	1043.2091	1067.1052	1113.1957	1129.3324	1153.3772	1159.369	1181.3754	1225.6945	1257.349	1362.9561	1399.7828	1413.5076	1445.6918	1495.1538	1499.6037	1519.0674	1893.7884	3030.2411	3056.5115	3058.8916	3086.8126	3099.5834	3102.6805	3121.2235	3181.6012
CC1CC(=O)C11CO1	C[C@H]1CC(=O)[C@]21CO2	
InChI=1S/C6H8O2/c1-4-2-5(7)6(4)3-8-6/h4H,2-3H2,1H3	InChI=1S/C6H8O2/c1-4-2-5(7)6(4)3-8-6/h4H,2-3H2,1H3/t4-,6+/m0/s1
