19
gdb 112785	2.41232	1.20852	0.91575	2.3518	77.27	-0.2535	0.0376	0.2911	1295.3374	0.157297	-422.972104	-422.962464	-422.96152	-423.006655	35.854	
O	-0.2042331535	 1.5087402525	-0.1909444672	-0.423195
C	 0.0013227025	 0.1177764481	 0.0157219058	-0.106572
C	-1.3632132773	-0.5382968947	 0.0257825263	 0.039032
C	-2.1794640612	-0.5971840877	-1.2907737702	-0.267392
C	-2.6820014489	-2.0015376127	-0.8698696403	 0.159382
O	-2.8722640127	-3.0060648514	-1.8160820054	-0.428055
C	-1.4630292186	-2.1013490715	 0.1345984351	-0.276005
C	-0.3568374167	-2.8357282482	-0.4486155524	 0.32143
C	 0.5118862439	-3.4676961993	-0.9939579322	-0.469211
H	 0.6560964713	 1.9314622108	-0.2663938142	 0.287726
H	 0.6184186821	-0.3211513036	-0.7818876848	 0.094354
H	 0.5153209392	-0.0745134531	 0.9721636119	 0.08689
H	-1.961792829	-0.0933031538	 0.8263640413	 0.0894
H	-2.9223081903	 0.179935677	-1.4757446521	 0.108657
H	-1.5160460281	-0.6702575994	-2.1591472075	 0.102242
H	-3.6120488321	-1.9317214868	-0.2987756222	 0.09615
H	-2.0048617196	-3.2395324971	-2.1719690152	 0.281964
H	-1.6946361771	-2.498475785	 1.1268508442	 0.10156
H	 1.3020978262	-4.0228925041	-1.4362242409	 0.201646
83.3795	99.525	119.663	145.3658	225.1316	257.508	334.2235	366.7405	395.4036	423.9173	433.9351	489.5024	628.394	639.6477	652.4765	694.4073	772.9308	817.175	893.2182	941.4819	957.9218	1056.5539	1060.9996	1084.6687	1091.2346	1128.5963	1163.2326	1180.9704	1228.2927	1242.5679	1249.4375	1263.3786	1282.6973	1335.4921	1345.0496	1374.1936	1443.2989	1463.173	1485.7604	1521.7178	2216.9333	2964.8471	3009.8899	3054.2846	3062.6553	3068.4436	3078.8893	3126.6756	3500.5582	3758.7044	3830.1483
OCC1CC(O)C1C#C	OC[C@H]1C[C@@H](O)[C@H]1C#C	
InChI=1S/C7H10O2/c1-2-6-5(4-8)3-7(6)9/h1,5-9H,3-4H2	InChI=1S/C7H10O2/c1-2-6-5(4-8)3-7(6)9/h1,5-9H,3-4H2/t5-,6+,7-/m1/s1
