19
gdb 50374	2.6493	1.54916	1.36285	2.6777	74.35	-0.2451	-0.0203	0.2248	1027.3052	0.160499	-423.032711	-423.024871	-423.023927	-423.065524	29.77	
O	-0.9390978387	 1.5195766586	-0.0612093623	-0.252464
C	 0.1003957566	 1.2362163254	 0.4817201834	 0.163496
C	 1.420975735	 1.8991387419	 0.2028492797	-0.119853
C	 1.4752612799	 2.9988356726	-0.8845789449	-0.268058
C	 2.03005961	 4.0190407352	 0.1540357375	-0.02889
C	 1.1056278989	 5.1681878224	 0.5682247691	-0.233546
C	 0.0873039145	 4.466252515	 1.4799111041	-0.099219
O	 0.8169588589	 3.4241640388	 2.1412076459	-0.255145
C	 1.8458968916	 2.9670243297	 1.2896115593	 0.093788
H	 0.1340160263	 0.4522258413	 1.2707990617	 0.081507
H	 2.1886775798	 1.1241213394	 0.1035206942	 0.086602
H	 2.1381375738	 2.7858855897	-1.724947151	 0.104746
H	 0.4840942935	 3.245287745	-1.273653685	 0.12284
H	 3.0555572321	 4.3389694372	-0.0341889993	 0.074217
H	 1.6660612531	 5.919973301	 1.1329693021	 0.106776
H	 0.6304953902	 5.6628289629	-0.2834001221	 0.108258
H	-0.3309046903	 5.1141324274	 2.2544096264	 0.110712
H	-0.7394464191	 4.039149266	 0.8976038976	 0.121481
H	 2.698701864	 2.6850938507	 1.9109085534	 0.082752
79.6067	92.5998	182.1501	220.7379	262.5737	359.0974	467.2486	597.2632	637.2021	657.449	747.2482	790.511	842.6506	857.3151	898.1287	918.1673	936.298	965.268	971.0208	998.7017	1049.1314	1061.366	1118.6202	1125.9837	1142.0272	1170.7053	1209.8221	1234.019	1244.1477	1265.6568	1274.7735	1310.5306	1326.578	1351.2256	1354.4079	1397.8494	1424.2275	1483.0707	1488.2901	1525.5775	1816.1564	2882.7704	3025.5327	3051.3979	3051.9895	3070.5249	3082.7233	3095.1935	3100.6321	3107.6647	3127.1139
O=CC1CC2CCOC12	O=C[C@H]1C[C@H]2CCO[C@@H]12	
InChI=1S/C7H10O2/c8-4-6-3-5-1-2-9-7(5)6/h4-7H,1-3H2	InChI=1S/C7H10O2/c8-4-6-3-5-1-2-9-7(5)6/h4-7H,1-3H2/t5-,6-,7-/m1/s1
