14
gdb 129163	6.31078	0.90509	0.79542	3.6807	70.91	-0.2284	0.0027	0.2311	1344.3677	0.099931	-432.823506	-432.815221	-432.814277	-432.857102	30.136	
N	-0.2374820751	 1.3442678109	 0.0102433598	-0.605114
C	-0.0486430778	 0.0954762856	 0.0017248621	 0.492434
N	-1.0283022069	-0.8858520361	 0.0020476848	-0.390155
C	-0.4085388842	-2.106637915	-0.0088982705	 0.453039
C	-1.1768315288	-3.3956929305	-0.0118484785	-0.506655
C	-0.3455616364	-4.5904185142	-0.0221833887	 0.346413
C	 0.3061036729	-5.5972060041	-0.0306010452	-0.428319
N	 0.8765287975	-2.0054299415	-0.0163195736	-0.176666
O	 1.1327757464	-0.6002714182	-0.0097238976	-0.2432
H	 0.6469766649	 1.8459409882	 0.0077075801	 0.235828
H	-2.0127883193	-0.6858582095	 0.0096327132	 0.286132
H	-1.8362339239	-3.4046946485	 0.8676619578	 0.163268
H	-1.8448282241	-3.3955382613	-0.884902434	 0.163347
H	 0.8995083448	-6.477903816	-0.0379586896	 0.209648
39.4695	112.2233	144.4312	273.2458	290.5078	325.8738	392.1304	410.472	488.5987	627.3338	639.6926	667.3664	709.3999	723.2564	763.0251	763.3684	905.6399	955.8307	962.9541	976.0823	1039.0026	1078.7873	1214.6287	1234.2784	1314.9153	1350.0921	1457.9484	1496.9154	1670.0309	1796.4829	2258.7662	3008.1513	3033.5074	3506.092	3540.2633	3693.8239
N=C1NC(CC#C)=NO1	[NH][C@H]1NC(=NO1)CC#C	
InChI=1S/C5H5N3O/c1-2-3-4-7-5(6)9-8-4/h1H,3H2,(H2,6,7,8)	InChI=1S/C5H6N3O/c1-2-3-4-7-5(6)9-8-4/h1,5-6H,3H2,(H,7,8)/t5-/m0/s1
