17
gdb 94425	2.64012	1.45577	1.21005	2.5242	69.08	-0.2275	0.0213	0.2488	1064.0935	0.136741	-455.131958	-455.123496	-455.122552	-455.165471	31.165	
O	 0.1632727374	 1.3655569565	-0.1997780861	-0.429489
C	 0.0794781823	-0.020729547	 0.0147580562	 0.090298
C	 0.2199848808	-0.5008180399	 1.4822528207	-0.209336
N	-1.260817077	-0.6225677851	 1.5508197517	-0.368827
C	-1.3653280886	-0.6035050085	 0.0910957904	 0.150936
C	-2.5603349673	 0.0294635513	-0.6744308434	-0.235324
N	-2.6529259259	-1.2329388102	-1.4206766379	-0.339552
C	-1.6699797833	-1.8909848366	-0.7254499557	 0.367097
O	-1.2449222132	-3.016952889	-0.7481595782	-0.370951
H	-0.3529731205	 1.8045131414	 0.4862844799	 0.290864
H	 0.7395028054	-0.4876148701	-0.7167810259	 0.110225
H	 0.76066622	-1.4509766595	 1.5615229641	 0.11919
H	 0.6486566232	 0.2217475198	 2.1856458879	 0.100798
H	-1.6138994111	-1.4616419801	 1.9997134828	 0.230575
H	-3.4268759597	 0.2412040108	-0.0401664615	 0.115818
H	-2.3075381453	 0.9035051013	-1.2816251689	 0.123868
H	-3.2658364772	-1.5356165951	-2.1623457661	 0.253811
71.6134	92.2261	152.8141	192.6601	247.5041	336.6479	398.2875	412.2813	465.1358	534.1788	615.8734	707.4406	723.6492	788.2816	849.1022	882.8372	943.1025	986.5572	994.1211	1011.8998	1053.5398	1120.6669	1147.1494	1157.3013	1162.5559	1176.1862	1231.9364	1257.8429	1279.7033	1301.3389	1311.5119	1380.5644	1388.8628	1435.965	1507.5812	1522.6174	1882.9636	3024.7052	3044.0008	3074.498	3099.3261	3116.4363	3522.2309	3620.2062	3796.3082
OC1CNC11CNC1=O	O[C@H]1CN[C@]21CNC2=O	
InChI=1S/C5H8N2O2/c8-3-1-7-5(3)2-6-4(5)9/h3,7-8H,1-2H2,(H,6,9)	InChI=1S/C5H8N2O2/c8-3-1-7-5(3)2-6-4(5)9/h3,7-8H,1-2H2,(H,6,9)/t3-,5-/m0/s1
