16
gdb 80842	2.66326	1.74987	1.3475	0.745	65.69	-0.26	0.0187	0.2787	954.913	0.124808	-475.00687	-474.999299	-474.998355	-475.038479	30.099	
O	 0.1123962285	 1.3955724308	 0.1287931592	-0.444338
C	 0.0371019665	-0.0009217872	 0.0813174585	 0.085308
C	 0.0034239211	-0.6598903383	 1.4829605925	 0.052372
C	-1.4756552556	-0.2374620413	 1.6068183787	-0.299263
C	-1.4335344796	-0.5931178535	 0.0774815905	 0.275744
O	-2.3918504779	-0.2368910944	-0.8391487573	-0.486666
C	-1.0672770921	-2.0474156809	 0.1682879447	 0.39947
N	-1.5646061183	-2.974079146	-0.5231857495	-0.609888
O	-0.0875102722	-2.080261403	 1.1224768548	-0.252835
H	-0.3528103319	 1.7386287703	-0.6430964197	 0.300631
H	 0.7468067905	-0.4378478731	-0.6336682223	 0.085486
H	 0.7613457279	-0.5185865172	 2.2466834359	 0.108153
H	-2.1194166094	-0.8320796925	 2.2568862478	 0.11553
H	-1.5899986309	 0.8309944788	 1.7774847623	 0.134817
H	-2.6433932844	-1.0517712177	-1.3017144129	 0.301849
H	-1.1601011521	-3.8868561747	-0.3160185233	 0.23363
152.9994	180.4825	265.784	313.8718	316.9154	376.9844	422.9385	459.7407	494.4754	577.4963	620.2263	691.0652	697.0887	845.402	858.253	884.241	923.7495	939.0403	965.8912	989.4301	1017.7432	1072.4767	1103.4303	1149.3193	1157.7505	1216.0462	1228.654	1238.3948	1310.1842	1321.5243	1382.5753	1404.7697	1427.654	1485.7242	1814.1976	3023.4297	3093.6298	3176.7393	3184.162	3497.6047	3705.5563	3796.8782
OC1C2CC1(O)C(=N)O2	O[C@H]1[C@H]2C[C@]1(O)[C]([NH])O2	
InChI=1S/C5H7NO3/c6-4-5(8)1-2(9-4)3(5)7/h2-3,6-8H,1H2	InChI=1S/C5H7NO3/c6-4-5(8)1-2(9-4)3(5)7/h2-3,6-8H,1H2/t2-,3+,5-/m1/s1
