25
gdb 94551	2.49534	1.26765	1.10267	0.1813	91.85	-0.254	0.0794	0.3334	1288.3711	0.228808	-352.339653	-352.329902	-352.328958	-352.373731	38.219	
C	-1.1975821095	 0.781778122	 0.2139210221	-0.391006
C	-0.3549790256	-0.4912017143	 0.2612962105	 0.002788
C	 0.5741932188	-0.66306087	-0.9771521778	-0.22674
C	 1.7606452552	-0.1190007092	-0.1371185593	-0.255179
C	 0.9443417961	-0.439832935	 1.1448950369	-0.01717
C	 1.0246798525	 0.4127211397	 2.3960465258	 0.353283
C	 0.1317157421	-0.0799836133	 3.5222654694	-0.462425
C	 2.3696179699	 0.982311687	 2.7902237464	-0.312247
C	 1.2724231256	 1.9010572912	 2.3104910711	-0.300629
H	-0.5981798158	 1.6609095272	-0.0427964892	 0.112933
H	-1.9818942024	 0.6856556504	-0.5454469886	 0.107955
H	-1.6850632682	 0.9857281434	 1.1725204072	 0.114869
H	-1.0080702781	-1.3443307283	 0.4711224254	 0.060635
H	 0.7124778392	-1.7134484811	-1.2479641653	 0.096453
H	 0.3004445469	-0.1064166255	-1.8777906664	 0.09105
H	 2.7304387279	-0.6098970238	-0.2493754824	 0.093315
H	 1.9019575588	 0.9549251959	-0.2893076208	 0.101329
H	 1.1767484334	-1.4719593752	 1.4404972468	 0.066246
H	 0.3900571344	-1.107210923	 3.8070908876	 0.111727
H	 0.2326609775	 0.5472351871	 4.4137315651	 0.10927
H	-0.9245634244	-0.0749917341	 3.2305592819	 0.117331
H	 2.6326671236	 0.995564433	 3.8429501599	 0.103947
H	 3.2106282493	 0.8150946788	 2.1254792658	 0.109778
H	 1.3922859037	 2.3649777544	 1.3379909383	 0.107941
H	 0.7795039791	 2.5370362927	 3.0387001697	 0.104546
85.4165	113.5939	153.0558	212.813	234.4054	235.8189	300.3072	310.3482	354.2025	384.0779	436.2348	503.7628	640.0984	723.0422	786.0847	790.7151	821.2332	863.793	887.1691	911.0455	931.0871	949.4084	956.6724	959.5412	1008.8041	1033.4716	1055.685	1068.6007	1079.3659	1097.4385	1111.6862	1139.287	1172.2149	1189.4126	1215.9988	1251.6581	1265.2456	1277.517	1285.7117	1289.9994	1352.372	1368.7534	1388.0906	1413.1914	1417.9104	1465.8077	1482.3216	1488.8355	1493.7436	1495.6456	1501.0111	1502.2459	1511.25	3004.3244	3021.0153	3030.7312	3042.7151	3052.1252	3058.9516	3080.1768	3093.2472	3094.8135	3096.4187	3104.1741	3112.69	3126.0925	3130.9996	3202.683	3216.7484
CC1CCC1C1(C)CC1	C[C@H]1CC[C@H]1C1(C)CC1	
InChI=1S/C9H16/c1-7-3-4-8(7)9(2)5-6-9/h7-8H,3-6H2,1-2H3	InChI=1S/C9H16/c1-7-3-4-8(7)9(2)5-6-9/h7-8H,3-6H2,1-2H3/t7-,8+/m0/s1
