15
gdb 106955	4.33366	1.11953	0.99701	3.5913	61.09	-0.2682	-0.0175	0.2508	1146.8246	0.112363	-494.908108	-494.900262	-494.899318	-494.941001	28.734	
O	-0.0005295111	 1.3968306968	-0.310740185	-0.409709
C	 0.0566964577	 0.0406589271	 0.0967129143	-0.168762
C	-1.3208232936	-0.5466870834	 0.2269898444	 0.374342
C	-2.346178277	 0.0392146282	 1.1823396929	-0.130949
O	-3.3148326945	-0.9998819668	 1.4111945397	-0.23572
C	-2.9212539531	-2.1924435679	 0.8818604764	 0.49323
O	-3.4880378745	-3.2225351917	 1.0941313183	-0.337366
C	-1.6930302865	-1.9520507654	 0.0361724211	-0.238879
O	-1.9561543829	-0.9749524341	-0.9876512446	-0.285634
H	-0.3639076916	 1.4164706976	-1.2031609518	 0.298447
H	 0.6463561704	-0.5767431072	-0.5949398724	 0.111707
H	 0.558980287	 0.0361104349	 1.0697699039	 0.126111
H	-1.8937598362	 0.3157756455	 2.1404989251	 0.129603
H	-2.8590164142	 0.9067135957	 0.7613889019	 0.143148
H	-1.0280612999	-2.7701557593	-0.2156992243	 0.13043
66.5326	119.7732	185.3778	232.3578	312.8848	384.0541	402.1299	420.9745	502.0572	642.2527	696.9666	741.9652	793.6466	855.351	879.4832	934.646	976.3754	1036.224	1056.6052	1065.9149	1099.482	1157.0584	1194.7336	1234.1981	1243.2402	1293.5881	1368.4501	1396.4035	1417.1804	1464.9239	1485.824	1501.0645	1890.1679	3013.3866	3055.4632	3083.2731	3116.6	3194.0173	3806.9699
OCC12COC(=O)C1O2	OC[C@]12COC(=O)[C@H]1O2	
InChI=1S/C5H6O4/c6-1-5-2-8-4(7)3(5)9-5/h3,6H,1-2H2	InChI=1S/C5H6O4/c6-1-5-2-8-4(7)3(5)9-5/h3,6H,1-2H2/t3-,5+/m1/s1
