21
gdb 82631	2.27845	1.70238	1.32157	1.7801	82.34	-0.2364	0.0782	0.3146	1086.1085	0.181972	-387.053986	-387.045038	-387.044094	-387.086905	34.826	
C	-0.1146904598	 1.4409689885	 0.0093157065	-0.51381
C	 0.0185887906	-0.0527350852	 0.0577586514	 0.233904
C	-0.0511915303	-0.9342491355	-1.2086300677	-0.170355
C	 0.6193438927	-2.2721276127	-0.9022532663	-0.255129
C	 0.0114782382	-2.1298004689	 0.5154082909	-0.160019
C	 0.7227267014	-0.8861982124	 1.1225811583	 0.123188
O	 2.1228885208	-0.8534541825	 1.2702737318	-0.451544
C	-1.0535194818	-1.1185858506	-0.0873109623	 0.314195
C	-2.5445903477	-1.0589037805	-0.0303435606	-0.53041
H	 0.8501607345	 1.919239746	-0.1946191652	 0.123868
H	-0.8102597269	 1.757241739	-0.7756504261	 0.11568
H	-0.4848949899	 1.837784882	 0.9615732285	 0.118969
H	-0.2243384219	-0.4784525197	-2.1764701178	 0.079815
H	 0.1521665639	-3.0883482969	-1.4602109962	 0.101321
H	 1.7106604733	-2.368928	-0.9859533918	 0.073218
H	-0.198260395	-3.0038731262	 1.129190202	 0.067014
H	 0.3155804779	-0.661653643	 2.1137708341	 0.08206
H	 2.5164122444	-0.9416173802	 0.3962439581	 0.28134
H	-2.9079963009	-0.9995936534	 1.002337364	 0.121954
H	-2.9189765806	-0.1773006166	-0.5622761809	 0.122487
H	-3.0041573329	-1.9410725609	-0.4913409006	 0.122257
145.926	170.8973	173.3404	191.6939	228.7666	270.084	294.7005	326.065	366.067	512.7258	578.4822	612.666	662.6862	706.6487	765.6066	811.2341	869.7203	907.9926	931.8566	969.0395	979.0731	996.8299	1022.8367	1071.7024	1092.2392	1105.5804	1114.3414	1135.8647	1150.6222	1186.9354	1219.507	1229.456	1258.1114	1290.3484	1296.372	1349.3973	1411.2115	1414.9488	1433.5023	1472.0896	1482.6253	1488.2727	1494.7413	1502.8145	1510.9478	3005.4719	3018.7774	3022.6446	3064.633	3075.7559	3082.7419	3086.8142	3087.9122	3090.8098	3132.8548	3182.9964	3818.6384
CC12C3CC(C1O)C23C	C[C@@]12[C@H]3C[C@@H]([C@H]1O)[C@@]23C	
InChI=1S/C8H12O/c1-7-4-3-5(7)8(7,2)6(4)9/h4-6,9H,3H2,1-2H3	InChI=1S/C8H12O/c1-7-4-3-5(7)8(7,2)6(4)9/h4-6,9H,3H2,1-2H3/t4-,5-,6+,7+,8+/m0/s1
