14
gdb 42639	2.86092	1.71382	1.30073	4.0254	72.3	-0.2474	-0.0087	0.2387	953.5458	0.100142	-399.468584	-399.461434	-399.46049	-399.500121	27.817	
O	-0.0225755933	 0.0840777661	 0.0048745677	-0.302286
C	 0.0139385076	 1.2676658785	 0.0688040513	 0.420919
N	-1.0821013219	 2.2292999459	 0.1022439369	-0.206093
C	-0.4945455274	 3.4292591611	 0.8116748758	-0.040732
C	 0.9158084546	 3.0937841438	 1.3001509722	-0.280618
C	 1.0947916527	 2.3588161982	-0.0742017225	 0.060799
C	 2.3682918568	 2.141734148	-0.6796330735	 0.044554
C	 3.437120279	 1.9538740565	-1.1974089603	-0.321969
C	-0.1495429699	 3.2082847218	-0.5941998456	-0.088815
H	-1.2209118082	 4.1006008855	 1.2492192155	 0.126325
H	 1.5371015369	 3.9897610986	 1.3541097105	 0.133012
H	 1.0399729522	 2.48657741	 2.201502667	 0.125674
H	 4.3798557765	 1.7789546879	-1.6543674323	 0.192393
H	-0.3928095255	 3.6550805181	-1.5462263529	 0.136837
123.8416	148.302	181.8418	375.6712	403.0577	473.6338	506.3107	620.7581	625.905	655.8964	665.1588	695.789	763.6543	803.2371	855.0759	889.7907	894.0578	952.3627	981.5077	1007.6896	1025.4721	1080.5193	1135.892	1163.9819	1213.1432	1246.943	1317.8894	1335.1215	1497.4297	1928.9337	2239.8969	3061.8186	3129.2182	3212.4015	3244.8556	3500.2733
O=C1N2C3CC1(C#C)C23	O=C1N2[C@H]3C[C@]1(C#C)[C@@H]23	
InChI=1S/C7H5NO/c1-2-7-3-4-5(7)8(4)6(7)9/h1,4-5H,3H2	InChI=1S/C7H5NO/c1-2-7-3-4-5(7)8(4)6(7)9/h1,4-5H,3H2/t4-,5-,7+,8?/m0/s1
