14
gdb 18306	3.7196	2.28032	1.61381	4.5455	63.52	-0.2346	-0.0582	0.1764	770.5043	0.108873	-382.543557	-382.537414	-382.53647	-382.573977	23.259	
O	 0.0216838204	 0.0520521889	 0.3142644054	-0.321395
C	-0.036486863	 1.2292996611	 0.0538720579	 0.384388
C	-1.2499252625	 2.0689172716	-0.1082787138	-0.17796
C	-0.9211505682	 3.3251854874	-0.4413482867	-0.064952
C	 0.564059318	 3.5438795127	-0.5235460671	-0.135998
C	 1.2420556627	 4.0272626558	 0.7880786995	-0.073611
O	 1.6483865691	 2.6854780757	 1.1172234967	-0.28294
C	 1.163642112	 2.1738592204	-0.1528027053	 0.01146
H	-2.2488674728	 1.6748704291	 0.0289412372	 0.12258
H	-1.6294459727	 4.1295601574	-0.6122481416	 0.120758
H	 0.8881293595	 4.0414191503	-1.4387484654	 0.098139
H	 2.1070956377	 4.6822050253	 0.6278621356	 0.109838
H	 0.586242902	 4.4642242692	 1.5492251566	 0.111888
H	 1.9605897376	 1.7342065352	-0.7587641191	 0.097803
108.8792	224.0283	243.7997	380.8174	471.6276	594.8735	716.4868	719.6283	803.477	840.9661	863.5158	881.8325	911.7019	976.322	1001.4865	1015.7761	1047.853	1078.4594	1108.7514	1164.2026	1188.1836	1226.1455	1243.1299	1285.0688	1318.4363	1340.3101	1372.5214	1517.8338	1637.004	1822.2279	3020.4619	3071.8595	3077.0018	3102.6673	3185.7569	3226.495
O=C1C=CC2COC12	O=C1C=C[C@H]2CO[C@@H]12	
InChI=1S/C6H6O2/c7-5-2-1-4-3-8-6(4)5/h1-2,4,6H,3H2	InChI=1S/C6H6O2/c7-5-2-1-4-3-8-6(4)5/h1-2,4,6H,3H2/t4-,6+/m0/s1
