19
gdb 107402	2.65003	1.4181	1.12197	0.7328	71.23	-0.2479	0.077	0.3249	1147.7809	0.158107	-460.143341	-460.134623	-460.133679	-460.176762	33.07	
C	 0.0690807454	 1.4201471511	 0.0358797281	-0.405385
C	 0.0702653911	-0.0824915297	-0.1038455602	 0.21992
O	 0.9676100877	-0.4895750781	-1.1276279141	-0.269869
C	 1.4064022459	-1.7758426173	-0.762355963	 0.020922
C	 2.5626465255	-1.8163538277	 0.2175537666	-0.371088
C	 1.1335736553	-1.9252396407	 0.698130347	 0.37981
C	 0.5556762798	-3.1240945024	 1.4000439922	-0.152627
O	-0.8555091952	-3.1552176104	 1.3016438992	-0.416845
O	 0.539194016	-0.700042143	 1.098420617	-0.321458
H	 1.0782590155	 1.7707382602	 0.2639856044	 0.132504
H	-0.2685896372	 1.8783739136	-0.8970491747	 0.133098
H	-0.6071639632	 1.7206832888	 0.8401786536	 0.128381
H	-0.9367434657	-0.4738857264	-0.3305243303	 0.072184
H	 1.2450274653	-2.5545767047	-1.5001082732	 0.110055
H	 3.1741165436	-2.7136448202	 0.2387184239	 0.115682
H	 3.0821075051	-0.8845510218	 0.4075062452	 0.126037
H	 0.9333046895	-4.0415863005	 0.9373921415	 0.111447
H	 0.8836929085	-3.1255434364	 2.4519824845	 0.098003
H	-1.161371703	-2.3091979744	 1.6488062221	 0.28923
82.8964	111.3528	166.8867	213.4415	238.2227	296.8019	358.1895	411.1866	442.1114	502.7537	535.4461	629.8833	691.7525	798.0473	825.6927	845.2651	897.9453	905.6662	943.8636	1013.363	1026.0978	1046.4001	1066.4658	1082.1927	1112.5451	1125.668	1139.4095	1161.307	1182.9834	1263.0679	1291.1778	1363.1503	1374.4615	1391.2855	1394.3728	1431.1404	1434.8405	1471.6332	1484.279	1485.8589	1497.4857	2952.071	2977.9947	3055.5536	3078.6022	3128.4357	3134.8131	3141.0445	3167.4602	3229.7557	3798.8366
CC1OC2CC2(CO)O1	C[C@H]1O[C@H]2C[C@@]2(CO)O1	
InChI=1S/C6H10O3/c1-4-8-5-2-6(5,3-7)9-4/h4-5,7H,2-3H2,1H3	InChI=1S/C6H10O3/c1-4-8-5-2-6(5,3-7)9-4/h4-5,7H,2-3H2,1H3/t4-,5-,6-/m0/s1
