19
gdb 57692	3.10218	0.82073	0.75586	2.68	82.47	-0.2628	0.0278	0.2906	1546.8747	0.15707	-382.050081	-382.039665	-382.038721	-382.085543	38.005	
C	 0.1382763858	 1.5657286542	 0.018181072	-0.403533
C	 0.0220459576	 0.0307022242	 0.021531349	 0.070064
N	 0.7003236272	-0.4881823652	 1.2168404503	-0.510175
C	-1.4505748798	-0.4528903275	 0.0277803843	-0.179808
C	-2.2573684812	 0.0223982661	 1.2537175767	-0.376244
C	-3.5797866784	-0.5881195052	 1.2997633526	 0.284114
C	-4.6640688923	-1.1063857127	 1.3144643507	-0.42507
C	 0.6524354733	-0.487598882	-1.2210282184	 0.249117
N	 1.1693671779	-0.9150954531	-2.1632136442	-0.33937
H	 1.1837530469	 1.870261916	-0.0853275904	 0.132119
H	-0.4233002218	 1.9971513956	-0.8139216629	 0.138055
H	-0.2427574599	 1.9655012534	 0.9598260283	 0.140799
H	 0.7334266178	-1.5036835818	 1.1878671699	 0.243174
H	 1.6640669579	-0.1672387806	 1.2387537772	 0.241435
H	-1.9388060564	-0.1200590374	-0.8929173886	 0.128607
H	-1.4549281924	-1.5479186362	 0.0020071881	 0.123817
H	-1.697621788	-0.21754623	 2.1640433715	 0.153764
H	-2.3656614775	 1.1131675886	 1.2348398546	 0.132938
H	-5.6251411766	-1.5568160567	 1.3400032693	 0.196196
60.2462	93.9642	113.056	184.8812	191.6753	243.8862	249.0404	305.1353	339.6454	369.5112	392.476	433.1042	474.0687	587.7739	605.9316	619.4073	643.3784	745.5551	774.3499	880.6737	890.1365	958.3437	990.6885	1020.5484	1040.6816	1056.9658	1151.1945	1170.6262	1245.0348	1298.5387	1312.6249	1353.6639	1384.7209	1409.0545	1476.3464	1487.9406	1493.6611	1500.2624	1662.0383	2240.7258	2340.365	3037.7367	3051.7459	3053.819	3074.3494	3101.3738	3123.1405	3143.0259	3490.5387	3507.642	3570.2775
CC(N)(CCC#C)C#N	C[C@@](N)(CCC#C)C#N	
InChI=1S/C7H10N2/c1-3-4-5-7(2,9)6-8/h1H,4-5,9H2,2H3	InChI=1S/C7H10N2/c1-3-4-5-7(2,9)6-8/h1H,4-5,9H2,2H3/t7-/m1/s1
