25
gdb 60133	3.5869	0.88928	0.81461	0.0836	93.72	-0.2843	0.0835	0.3678	1566.2442	0.229588	-352.312196	-352.302793	-352.301849	-352.347114	36.6	
C	 0.0792285484	 1.5755881311	-0.079021949	-0.382001
C	-0.0780477136	 0.0649329951	 0.1469254305	 0.054917
C	 0.6385533439	-0.3625429538	 1.4349028567	-0.387835
C	-1.5551347221	-0.3813036271	 0.1806668859	-0.246406
C	-2.3269886502	-0.1260404996	-1.1086890486	 0.064626
C	-2.0497588802	-0.9267460378	-2.4291764273	-0.04501
C	-2.7920247981	-2.1429247323	-1.8018801919	-0.221274
C	-3.6504211949	-0.8935660979	-1.4433639896	-0.063339
C	-3.4439179481	-0.4367279869	-2.9162946369	-0.218336
H	 1.1361267116	 1.8625399888	-0.0768085247	 0.107683
H	-0.3472270368	 1.896422817	-1.0335603335	 0.114381
H	-0.4187565609	 2.1431603567	 0.7169468678	 0.108867
H	 0.4048274233	-0.4533581845	-0.6940601154	 0.072864
H	 0.1911761491	 0.1232169861	 2.3107329441	 0.11006
H	 0.5752596559	-1.4451417211	 1.5882491086	 0.107661
H	 1.6984799709	-0.0880096882	 1.4102862484	 0.106974
H	-1.5867279913	-1.4422476757	 0.4507692292	 0.090482
H	-2.0641214767	 0.1498672744	 0.9986787727	 0.087692
H	-2.4165206736	 0.9524021101	-1.282953832	 0.06179
H	-1.1252521295	-0.9475321062	-3.0094403858	 0.064215
H	-3.2408909658	-2.8472007575	-2.5081528152	 0.08632
H	-2.3010387555	-2.6771453724	-0.9875592688	 0.091292
H	-4.5819377616	-0.8745524618	-0.8740310814	 0.063669
H	-3.5476708119	 0.6330921073	-3.1197070184	 0.085048
H	-3.9301336724	-1.0414164638	-3.6866249552	 0.085657
34.8279	78.0795	128.8045	222.4705	238.0734	293.5122	317.5522	347.498	418.5873	435.9122	562.7863	599.1553	757.0434	789.4833	804.5237	832.0109	891.0937	898.4796	903.9306	924.2558	930.8938	956.1202	967.5859	1008.6133	1022.9677	1030.5044	1059.1326	1082.1593	1112.4913	1137.8287	1144.4567	1157.2931	1166.5288	1191.3516	1192.8696	1218.0014	1243.5133	1248.1025	1261.8076	1280.6053	1315.039	1364.2892	1373.3811	1400.5026	1420.7256	1434.2937	1477.8479	1488.373	1494.3864	1504.5482	1505.9102	1511.1204	1542.6423	2994.4345	3007.7573	3020.8696	3025.7816	3032.6684	3045.7537	3057.7301	3066.9089	3084.8715	3087.5372	3091.3846	3095.0808	3096.4586	3106.8062	3111.2855	3128.0195
CC(C)CC1C2CC1C2	CC(C)C[C@H]1[C@H]2C[C@@H]1C2	
InChI=1S/C9H16/c1-6(2)3-9-7-4-8(9)5-7/h6-9H,3-5H2,1-2H3	InChI=1S/C9H16/c1-6(2)3-9-7-4-8(9)5-7/h6-9H,3-5H2,1-2H3/t7-,8+,9-
