19
gdb 91210	2.08158	1.63247	1.54292	1.7147	76.19	-0.2412	0.0241	0.2653	1033.1731	0.159438	-419.1916	-419.182713	-419.181769	-419.225248	33.374	
C	-0.5297797754	 1.3847765039	 0.1136447432	-0.410621
C	 0.0553324564	-0.0148426417	-0.0038894515	-0.021138
C	 1.3472153688	-0.229870981	-0.8598314285	-0.263986
C	 2.0479454157	-0.8409509928	 0.3616267975	 0.075538
O	 2.7232498226	 0.1927413259	 1.1518393722	-0.276086
C	 1.6447250653	 0.3234463542	 2.0046194437	 0.371691
N	 1.5150500258	 0.9754516972	 3.0696197474	-0.559414
C	 0.7620031548	-0.650290877	 1.2447207405	 0.20362
N	 0.0265018702	-1.6656960994	 1.9355696656	-0.605897
H	 0.227766309	 2.1107370857	 0.4239622311	 0.13224
H	-0.9379448257	 1.7125400224	-0.8484186093	 0.116941
H	-1.3399816881	 1.4180176907	 0.8498589456	 0.121799
H	-0.7188224762	-0.7200854203	-0.3238460962	 0.08745
H	 1.2112588434	-0.9260969691	-1.6902558206	 0.110889
H	 1.8316812561	 0.6768458579	-1.2297183028	 0.115035
H	 2.6466114538	-1.7479361603	 0.2924076046	 0.094915
H	 2.3661944527	 1.491553323	 3.3002369705	 0.226855
H	 0.352094769	-1.7620608907	 2.8924354463	 0.242689
H	-0.9568317383	-1.4193364687	 1.9825774708	 0.237483
75.6445	93.5911	140.7569	210.974	247.2897	266.1164	349.7354	378.8201	417.129	514.4814	597.2167	674.9999	717.6254	767.1083	806.411	837.9811	865.665	871.3408	931.9905	947.6824	967.8601	976.8427	1013.9005	1096.1998	1111.5662	1125.4119	1164.9562	1190.6757	1235.3675	1241.1305	1270.5462	1300.2732	1321.5421	1351.129	1396.8156	1416.3317	1466.6956	1491.6967	1495.1045	1664.8454	1809.0828	3033.057	3048.2182	3068.2609	3097.9099	3110.3529	3122.5876	3132.0921	3470.8826	3502.2551	3578.927
CC1CC2OC(=N)C12N	C[C@H]1C[C@H]2O[C]([NH])[C@@]12N	
InChI=1S/C6H10N2O/c1-3-2-4-6(3,8)5(7)9-4/h3-4,7H,2,8H2,1H3	InChI=1S/C6H10N2O/c1-3-2-4-6(3,8)5(7)9-4/h3-4,7H,2,8H2,1H3/t3-,4+,6+/m0/s1
