16
gdb 112216	2.51573	1.34357	0.97978	3.8153	65.74	-0.2659	-0.0104	0.2555	1179.874	0.124016	-475.005302	-474.996981	-474.996037	-475.038685	30.341	
O	 0.0149151883	 1.4847107176	-0.132874771	-0.412756
C	 0.0027043269	 0.1423080555	 0.3030293949	-0.072441
C	-1.3445936169	-0.5070638337	 0.0525992994	 0.029783
O	-1.6086247053	-0.5788848688	-1.3962974858	-0.289611
C	-1.7419915114	-1.9575390085	-1.372242126	 0.455379
O	-1.974920996	-2.6831892953	-2.2801998278	-0.321182
C	-1.4626031436	-2.0295773773	 0.1116763437	 0.09591
C	-0.69069897	-3.0326831397	 0.8864517269	-0.293327
N	-2.1430722707	-2.9037056206	 1.0536120805	-0.345723
H	-0.1947742854	 1.4769746999	-1.0742651526	 0.298774
H	 0.7878177039	-0.4579769596	-0.1822139451	 0.100734
H	 0.2093165975	 0.1582585033	 1.379304122	 0.115195
H	-2.1520897773	 0.0476900343	 0.5401161028	 0.111595
H	-0.3668626068	-3.9454288908	 0.3957386534	 0.150768
H	-0.0300295416	-2.6632880313	 1.6668542163	 0.130115
H	-2.3689275617	-2.3932421151	 1.9046057083	 0.246786
84.2126	126.4221	142.0722	211.3835	231.3373	295.5548	365.6465	419.1923	476.8963	587.4607	632.6378	723.4062	758.3312	852.6526	865.3409	928.757	959.6306	985.4502	1008.3747	1021.7031	1088.5335	1097.5442	1125.9783	1135.2762	1217.4167	1254.0598	1264.5481	1282.5662	1341.0682	1400.0262	1422.1524	1432.0795	1492.6688	1508.9193	1951.4036	2990.2311	3064.493	3078.7632	3111.9638	3204.7897	3497.8205	3798.1576
OCC1OC(=O)C11CN1	OC[C@H]1OC(=O)[C@]21CN2	
InChI=1S/C5H7NO3/c7-1-3-5(2-6-5)4(8)9-3/h3,6-7H,1-2H2	InChI=1S/C5H7NO3/c7-1-3-5(2-6-5)4(8)9-3/h3,6-7H,1-2H2/t3-,5-/m1/s1
