19
gdb 114907	3.05256	1.2841	1.17158	2.5294	70.37	-0.2525	0.067	0.3195	1123.3296	0.160772	-460.144524	-460.136522	-460.135578	-460.177462	30.464	
O	 0.2036441586	 1.0852124904	-0.4791627628	-0.424219
C	 0.1107507557	-0.2315368797	 0.0361358296	-0.079007
C	-1.3429764555	-0.6509476442	 0.135329498	 0.094441
O	-2.0133494416	-0.5554286608	-1.1563043934	-0.339949
C	-2.6099991313	-1.8673273152	-0.9914770664	 0.107398
C	-2.1504479995	-2.885972644	-2.0229545888	-0.247604
C	-0.7374440951	-3.2377417223	-1.5326128594	-0.087433
O	-0.766838919	-3.0974449035	-0.1074478597	-0.26282
C	-1.7414146154	-2.1410130901	 0.2575731023	 0.033127
H	-0.3126776106	 1.090241158	-1.2941145269	 0.293633
H	 0.6755601286	-0.9467671972	-0.5771178822	 0.097736
H	 0.5638261188	-0.2210336083	 1.033332525	 0.112818
H	-1.8626878333	-0.0170601254	 0.8672029038	 0.079726
H	-3.6949824899	-1.8010551521	-0.8687539761	 0.081928
H	-2.8083959562	-3.7605888497	-1.9857406042	 0.111809
H	-2.1635178189	-2.4812545722	-3.0376627687	 0.119704
H	-0.4374533301	-4.2647920949	-1.755484848	 0.114742
H	 0.0044397757	-2.5575694275	-1.9711431184	 0.103861
H	-2.1989736909	-2.4535488715	 1.1974555463	 0.09011
77.3281	125.0422	151.8887	217.9137	287.7729	365.9529	431.4146	476.6703	524.9189	656.084	670.1237	813.479	831.9867	865.0682	870.4364	906.9749	941.4011	976.7736	977.7352	1029.3017	1051.5356	1080.3999	1099.9605	1130.1875	1138.2589	1192.0953	1215.6526	1227.0405	1242.1871	1265.7381	1305.3001	1311.6237	1327.4976	1348.7356	1360.0838	1394.9114	1405.3104	1437.2336	1468.1442	1497.9267	1519.9341	3007.4495	3016.2875	3021.0823	3052.4755	3069.5404	3077.5815	3095.373	3103.3651	3118.1744	3791.5085
OCC1OC2CCOC12	OC[C@H]1O[C@H]2CCO[C@@H]12	
InChI=1S/C6H10O3/c7-3-5-6-4(9-5)1-2-8-6/h4-7H,1-3H2	InChI=1S/C6H10O3/c7-3-5-6-4(9-5)1-2-8-6/h4-7H,1-3H2/t4-,5+,6+/m0/s1
