16
gdb 46299	3.21164	1.3907	1.27277	2.8866	72.15	-0.246	-0.0031	0.2429	1032.7841	0.124922	-437.878648	-437.871161	-437.870217	-437.910996	28.171	
N	-0.2475882968	 1.191884234	-0.1720892789	-0.543141
C	-0.060184288	-0.0296868912	 0.021996257	 0.388196
O	 1.078100184	-0.7356530752	 0.3527421834	-0.257158
C	 0.3443822758	-1.9938810747	 0.4500192576	-0.127717
C	-0.9578576388	-1.2811498948	-0.0122283899	 0.259417
O	-2.0181257266	-1.3080456176	 0.9149804156	-0.305123
C	-3.2586399481	-1.5492160167	 0.2465222659	-0.134487
C	-2.8806935312	-1.7983568611	-1.1839392524	-0.102986
C	-1.570215037	-1.6466355932	-1.3316573006	-0.134148
H	 0.6090598748	 1.7323061129	-0.0371315861	 0.229836
H	 0.7644683798	-2.7508154519	-0.2164350358	 0.117389
H	 0.3004447043	-2.3523368116	 1.4806118797	 0.130564
H	-3.7619482823	-2.4069030364	 0.7150618667	 0.114817
H	-3.9183244696	-0.6760858605	 0.3573889949	 0.124908
H	-3.5984383372	-2.0476884296	-1.9545243724	 0.118119
H	-0.9914095131	-1.7365073525	-2.2409482047	 0.121514
91.8212	112.2816	169.2516	262.5287	315.2357	396.5956	482.907	577.067	660.6786	729.8798	775.6861	791.6939	845.8128	864.4887	899.9412	957.6937	958.5743	967.7951	992.6239	1015.4739	1035.3044	1047.4538	1122.3368	1150.2264	1195.6358	1198.3086	1220.2244	1228.0995	1351.2707	1362.1044	1381.4386	1505.3134	1514.49	1687.1935	1824.5557	2996.0042	3020.8824	3064.8587	3132.7926	3216.2877	3240.4101	3471.1701
N=C1OCC11OCC=C1	[NH][C]1OC[C@]21OCC=C2	
InChI=1S/C6H7NO2/c7-5-6(4-8-5)2-1-3-9-6/h1-2,7H,3-4H2	InChI=1S/C6H7NO2/c7-5-6(4-8-5)2-1-3-9-6/h1-2,7H,3-4H2/t6-/m1/s1
