17
gdb 50170	3.74977	1.37817	1.29849	3.5818	74.39	-0.2459	-0.0313	0.2146	1010.866	0.135218	-421.686325	-421.679185	-421.678241	-421.717922	28.323	
O	-0.1230993838	-0.1111224234	-0.1031816878	-0.242067
C	-0.0201503206	 1.0645395693	 0.1253469701	 0.158245
C	 1.2215429713	 1.9042158292	-0.0276128735	-0.054189
O	 2.4281192792	 1.2018504446	-0.4805587801	-0.328665
C	 2.2701785158	 1.9015451155	-1.7239972358	 0.422506
C	 2.8197109471	 2.8925414006	-2.7883385321	-0.297602
C	 1.2097968573	 2.9883178171	-2.7554669881	-0.096358
C	 1.1900251515	 1.4503206497	-2.7495591878	-0.271503
C	 1.3646253835	 2.9865374951	-1.1864362456	-0.11387
H	-0.8774525786	 1.669945194	 0.5055558757	 0.077573
H	 1.4042898997	 2.3934304079	 0.9375392252	 0.116873
H	 3.3654326415	 3.7607465404	-2.4147923073	 0.11173
H	 3.2482489199	 2.4961604812	-3.7132651802	 0.10888
H	 0.6165997303	 3.6580446265	-3.3786522144	 0.094048
H	 1.5556801617	 0.9522145157	-3.6492727969	 0.1004
H	 0.2999303812	 0.9635973922	-2.3586098198	 0.123569
H	 1.859268213	 3.8719888844	-0.7855855616	 0.09043
105.4586	154.6091	211.4644	323.1792	388.7829	465.3508	544.1925	569.1963	671.9619	714.697	724.2349	802.3005	830.7438	837.1519	909.033	944.3563	951.0121	983.5161	1007.8843	1025.6289	1041.4414	1054.2418	1085.7472	1111.2674	1134.1383	1158.3805	1169.5562	1192.4137	1216.4393	1228.4525	1247.8474	1325.2423	1381.4279	1418.0857	1497.0098	1542.9618	1834.6538	2851.1728	3034.7142	3056.0941	3087.3529	3092.5182	3111.941	3138.1755	3177.691
O=CC1OC23CC(C2)C13	O=C[C@H]1O[C@@]23C[C@@H](C2)[C@@H]13	
InChI=1S/C7H8O2/c8-3-5-6-4-1-7(6,2-4)9-5/h3-6H,1-2H2	InChI=1S/C7H8O2/c8-3-5-6-4-1-7(6,2-4)9-5/h3-6H,1-2H2/t4-,5-,6+,7-/m1/s1
