17
gdb 33861	4.01638	1.29709	1.15956	4.233	76.27	-0.2428	0.0157	0.2585	1063.2293	0.138375	-380.84691	-380.839758	-380.838814	-380.878371	28.479	
N	 0.0380823127	-1.1211104963	-0.0973663501	-0.345061
C	 0.0163875697	 0.0350174537	-0.0468805581	 0.205795
C	-0.0223198437	 1.4675110596	 0.0208187347	 0.183521
C	 0.4010056522	 2.266318498	-1.1999073486	-0.333372
C	 1.2591705865	 2.3099311165	 0.0297109381	-0.081432
C	 1.0552838804	 3.3797669335	 1.0770715454	-0.025323
C	 0.0098019667	 4.4208588996	 0.897677116	-0.255179
N	-0.2722100566	 3.2314298406	 1.7110612747	-0.088408
C	-0.9800043587	 2.1225613911	 1.0376282133	-0.252909
H	 0.7778592594	 1.6948189433	-2.0407443833	 0.141952
H	-0.1996770202	 3.1226623774	-1.4804342122	 0.129808
H	 2.2257142291	 1.8227985696	-0.0037948785	 0.119242
H	 1.8936603474	 3.5608208077	 1.7434461472	 0.103725
H	 0.0662648287	 5.3462187385	 1.4650881262	 0.124002
H	-0.4673983021	 4.530423955	-0.0719854817	 0.1144
H	-1.9045452503	 2.4776717585	 0.5704961354	 0.122066
H	-1.2535977512	 1.3837986737	 1.7955952816	 0.137174
124.8976	156.1316	257.358	279.4898	423.1481	448.176	535.5795	545.1484	583.0273	671.8976	721.5313	749.3415	812.2727	855.9164	873.6021	931.1935	961.7793	984.6624	994.1814	1040.206	1069.2485	1085.8016	1095.9127	1109.8451	1122.9838	1151.8152	1221.5591	1242.1456	1267.7371	1287.2096	1336.4589	1376.0557	1401.1836	1483.9762	1499.4962	1521.4541	2347.2708	3051.3052	3097.0032	3109.5042	3144.6964	3149.2431	3189.5338	3196.4657	3232.0785
N#CC12CC1C1CN1C2	N#C[C@]12C[C@H]1[C@H]1CN1C2	
InChI=1S/C7H8N2/c8-3-7-1-5(7)6-2-9(6)4-7/h5-6H,1-2,4H2	InChI=1S/C7H8N2/c8-3-7-1-5(7)6-2-9(6)4-7/h5-6H,1-2,4H2/t5-,6+,7-,9?/m0/s1
