17
gdb 125000	3.12052	1.20039	0.88329	3.1011	71.81	-0.2094	0.029	0.2384	1266.9758	0.135955	-455.166826	-455.15745	-455.156506	-455.201449	33.44	
C	-0.1044393368	 1.6154155128	 0.0697687059	-0.516662
C	 0.0227895677	 0.1266236319	-0.010280472	 0.001337
C	 0.0605526001	-0.6971484061	-1.1232877505	 0.325865
C	 0.0141857749	-0.4032370959	-2.587328528	-0.192309
O	-0.4352103074	-1.5780690989	-3.2533240111	-0.424056
N	 0.2082940206	-1.9655647629	-0.6764681712	-0.262089
N	 0.2394962097	-2.0494223942	 0.6778055788	-0.346427
C	 0.1429427257	-0.7871903144	 1.064619508	 0.368194
O	 0.1534539474	-0.4361697625	 2.370537475	-0.432659
H	 0.869217644	 2.1163907393	 0.1406258729	 0.127579
H	-0.6165965066	 2.0233318177	-0.8080493326	 0.11574
H	-0.6775946724	 1.9054448465	 0.9553363765	 0.139499
H	-0.6559982727	 0.4506608276	-2.7701690626	 0.111083
H	 1.0132262364	-0.1103313128	-2.9489986367	 0.111707
H	-0.27526404	-1.4700682211	-4.1949868492	 0.295952
H	 0.156070049	-2.7965784001	-1.2390318504	 0.276549
H	 0.2115639205	-1.2536842667	 2.8803790473	 0.300694
57.989	79.6819	147.4683	188.7247	238.5641	247.824	274.7657	340.8039	377.4516	409.3113	488.0642	547.1247	605.9402	665.0551	731.6675	744.3547	789.7871	960.8361	1027.872	1058.2867	1065.4665	1119.8742	1153.4903	1213.4051	1228.5692	1242.377	1278.0419	1324.4575	1421.2029	1432.7826	1476.3143	1482.5984	1496.9893	1512.8122	1543.9064	1566.4829	1646.5757	2965.58	2995.6119	3020.9711	3073.2113	3105.46	3692.8258	3797.029	3839.8186
CC1=C(CO)NN=C1O	Cc1c(CO)[nH]nc1O	
InChI=1S/C5H8N2O2/c1-3-4(2-8)6-7-5(3)9/h8H,2H2,1H3,(H2,6,7,9)	InChI=1S/C5H8N2O2/c1-3-4(2-8)6-7-5(3)9/h8H,2H2,1H3,(H2,6,7,9)
