21
gdb 40740	3.70921	1.11481	0.99603	1.6078	82.51	-0.2378	0.0724	0.3101	1272.0538	0.1838	-387.039145	-387.031086	-387.030141	-387.072344	31.338	
C	-0.1953837503	 1.2097427963	-0.3807046372	-0.276205
C	 1.2257310299	 1.1095646479	 0.1162913509	-0.272169
C	 0.3481054321	-0.1178786176	 0.0881341974	 0.030491
C	-0.1453305132	-0.7350658696	 1.3657331603	-0.000537
C	-1.4264567614	-1.6393546159	 1.3354842657	-0.268783
C	-0.6515144768	-2.7757584466	 2.0618656077	-0.076016
C	 0.0633837682	-3.7434558846	 1.110560069	-0.074359
O	 1.1675381658	-2.8234932904	 0.9320109477	-0.292306
C	 0.6507619306	-1.9324264443	 1.9466512426	 0.101379
H	-0.9179170263	 1.7156867583	 0.2518333777	 0.106002
H	-0.3621543061	 1.3530235026	-1.4427386253	 0.109144
H	 2.031936465	 1.181833141	-0.6052239974	 0.112015
H	 1.4562921392	 1.5486530318	 1.0817826044	 0.106327
H	 0.5782279315	-0.8450440871	-0.6843240654	 0.092426
H	-0.2510899244	 0.0380549125	 2.1366571569	 0.063648
H	-2.2744411463	-1.2346133544	 1.891959544	 0.1007
H	-1.772535344	-1.9075053994	 0.3326453409	 0.099449
H	-1.0610977456	-3.1657295532	 2.9922383969	 0.074312
H	 0.4016643351	-4.6787118412	 1.5765355374	 0.097763
H	-0.4437302613	-3.977177703	 0.1657283231	 0.098862
H	 1.3801374783	-1.7518852431	 2.7418533427	 0.067858
73.2425	82.3563	151.4346	228.236	293.8482	368.786	406.7449	510.9507	674.5137	748.279	778.0951	800.9372	826.4178	835.5467	892.6524	915.1363	924.4125	931.5718	959.5317	1000.0025	1008.4406	1026.3769	1054.2899	1059.4688	1071.5094	1077.8326	1140.473	1143.328	1149.8387	1185.7107	1198.0448	1215.6184	1218.6546	1232.259	1258.5494	1273.0238	1295.1643	1303.5837	1325.5004	1362.1686	1428.578	1469.5228	1484.2573	1504.7807	1523.5412	3001.7828	3026.9172	3047.0527	3054.381	3062.8108	3107.5771	3125.1532	3126.0311	3131.352	3159.2754	3203.7543	3219.5076
C1CC1C1CC2COC12	C1CC1[C@H]1C[C@H]2CO[C@@H]12	
InChI=1S/C8H12O/c1-2-5(1)7-3-6-4-9-8(6)7/h5-8H,1-4H2	InChI=1S/C8H12O/c1-2-5(1)7-3-6-4-9-8(6)7/h5-8H,1-4H2/t6-,7+,8+/m0/s1
