17
gdb 75809	3.32479	1.25912	1.07229	2.6294	70.41	-0.2477	0.0184	0.2661	1129.5445	0.135573	-455.103029	-455.094518	-455.093574	-455.136526	31.391	
O	 0.3241940353	 1.1359516828	-0.3653586256	-0.427902
C	 0.1810032875	-0.2171578494	-0.0395364421	-0.019739
C	 0.1452058573	-0.5310322678	 1.4551240955	 0.354796
N	 0.9037072265	-0.1284652564	 2.3827519964	-0.561074
N	-1.0310091771	-1.2505853588	 1.308014058	-0.387904
C	-1.2727373219	-0.8000977442	-0.0647264548	 0.27377
C	-2.4538293112	 0.1084456546	-0.4512997365	-0.123373
O	-2.8034476227	-0.7673774272	-1.5442707658	-0.271105
C	-1.8117565258	-1.7383447155	-1.1546946164	-0.136223
H	 0.7570478794	 1.5571934101	 0.3878115768	 0.304317
H	 0.8826730398	-0.8413619448	-0.6080593071	 0.101143
H	 0.5744462915	-0.4014047484	 3.3097334601	 0.215868
H	-1.7207364695	-1.4630459849	 2.0163433877	 0.242813
H	-3.2501770317	 0.1683100788	 0.3038819828	 0.092185
H	-2.181344598	 1.1146980692	-0.7843621821	 0.130731
H	-1.1231131636	-1.9850362378	-1.9719377105	 0.111711
H	-2.2615506558	-2.6637288202	-0.7692952762	 0.099986
72.1184	85.7155	199.164	207.4316	245.5088	291.2151	360.7204	406.0473	477.7082	497.0548	549.9123	702.0959	798.4241	832.7564	844.9888	889.6054	914.1638	957.2385	988.4242	1031.9782	1056.1353	1093.8013	1144.6319	1148.6901	1157.4622	1188.7661	1194.9118	1219.9782	1296.5256	1326.845	1343.1959	1372.1306	1378.8917	1402.9409	1499.4706	1526.0979	1805.1052	2998.0835	3009.1114	3023.5069	3055.3059	3084.5927	3468.496	3580.8149	3781.9022
OC1C(=N)NC11COC1	O[C@H]1[C]([NH])NC21COC2	
InChI=1S/C5H8N2O2/c6-4-3(8)5(7-4)1-9-2-5/h3,8H,1-2H2,(H2,6,7)	InChI=1S/C5H8N2O2/c6-4-3(8)5(7-4)1-9-2-5/h3,8H,1-2H2,(H2,6,7)/t3-/m0/s1
