23
gdb 116052	2.90789	1.15582	0.88206	1.1131	88.01	-0.2405	0.0225	0.263	1395.0482	0.206474	-388.300996	-388.291622	-388.290678	-388.335542	35.498	
C	 0.0880067344	 1.6259577561	-0.0917934457	-0.387599
C	 0.1923945659	 0.1049632152	 0.0347088147	-0.178535
C	 0.6637384076	-0.5815172313	-1.2508579355	 0.130538
C	 0.7882897119	-2.0996838679	-1.0799296206	-0.190238
C	 1.5996852905	-2.8179659159	-2.1644350911	-0.268562
C	 1.1953677131	-2.6205494774	-3.6031882976	-0.050605
C	 0.6161740528	-1.5712875401	-4.1871964308	-0.058003
C	 0.1657413171	-0.2622776794	-3.5878484704	-0.127534
O	-0.2961926798	-0.2770167099	-2.2572777166	-0.249049
H	 1.0636585352	 2.0725256151	-0.3162273012	 0.106463
H	-0.5987282686	 1.8966322396	-0.8973351586	 0.131526
H	-0.2766243899	 2.0748543727	 0.8371494705	 0.107817
H	 0.8867590868	-0.1600002065	 0.8409308118	 0.09107
H	-0.7836080368	-0.3153995866	 0.3085688525	 0.102925
H	 1.641610823	-0.1564909208	-1.5418798422	 0.056532
H	 1.2522864709	-2.3157158273	-0.1097078138	 0.088525
H	-0.2300460351	-2.5042362456	-1.0465058413	 0.107182
H	 2.6571341026	-2.5216452425	-2.0703326822	 0.110374
H	 1.5910958996	-3.8931414054	-1.9470067863	 0.101655
H	 1.4736957778	-3.4464014162	-4.2563601075	 0.085215
H	 0.4746343248	-1.615482724	-5.2665803058	 0.08449
H	 0.9841459809	 0.4754382981	-3.696868637	 0.095668
H	-0.6744230048	 0.1236215299	-4.1763920453	 0.110145
49.1521	92.8853	153.8311	174.2795	224.7952	275.6933	336.0641	347.6316	420.3848	426.8769	479.2504	551.014	692.6153	742.7894	768.8159	807.7026	876.9339	897.1998	903.3999	951.8585	988.7469	1013.9013	1030.9095	1039.9785	1073.7803	1089.2082	1122.0562	1149.784	1175.3582	1216.0482	1252.0746	1280.2812	1289.6754	1308.8823	1323.6254	1369.0622	1383.1122	1396.2789	1402.4906	1405.0329	1419.324	1430.8801	1466.1684	1475.7182	1478.5083	1481.5933	1495.946	1510.4302	1738.2175	2919.0216	2939.3477	2980.4693	3022.3045	3029.7265	3034.6375	3043.1918	3054.9781	3063.1598	3075.3469	3098.3989	3119.8384	3126.2618	3144.7367
CCC1CCC=CCO1	CC[C@H]1CCC=CCO1	
InChI=1S/C8H14O/c1-2-8-6-4-3-5-7-9-8/h3,5,8H,2,4,6-7H2,1H3	InChI=1S/C8H14O/c1-2-8-6-4-3-5-7-9-8/h3,5,8H,2,4,6-7H2,1H3/t8-/m0/s1
