17
gdb 53051	3.6574	0.98384	0.88105	2.1025	78.81	-0.2416	0.0153	0.2569	1367.3298	0.134351	-421.753503	-421.744724	-421.74378	-421.789101	31.028	
C	 0.0405479256	 1.5146341094	-0.0928445236	-0.505919
C	 0.0019897811	 0.0621926707	-0.0299752466	 0.17148
C	-0.0303210621	-1.1406923682	 0.0309810699	-0.036054
C	-0.062701256	-2.5750822581	 0.0845753847	 0.197543
C	 0.5346540013	-3.4182677435	-1.0651995423	-0.123282
O	-0.6184852145	-4.2955015373	-1.0749415624	-0.288987
C	-1.2852595779	-3.5330153069	-0.0607310024	 0.005151
C	-0.939469091	-3.983772046	 1.3610178893	-0.104037
O	 0.2456296112	-3.1459527381	 1.3821239194	-0.326376
H	 0.714752412	 1.8618582851	-0.8832084436	 0.153493
H	-0.9532849883	 1.9290286693	-0.2947967154	 0.153645
H	 0.3907287592	 1.937676268	 0.8549193238	 0.157858
H	 0.6387514237	-2.8853241722	-2.0171343997	 0.10982
H	 1.4645445978	-3.9358658332	-0.8086300845	 0.117116
H	-2.3086679066	-3.2608512142	-0.3222295605	 0.095829
H	-1.6564423304	-3.6724021269	 2.1312393499	 0.107795
H	-0.707919125	-5.048357658	 1.4672018143	 0.114925
13.6481	83.9515	99.172	164.3453	270.0916	309.3388	362.4357	380.277	472.4276	520.7161	521.2556	708.8567	830.703	872.1081	915.4386	971.8233	987.452	1005.9223	1023.0335	1050.1648	1053.0752	1063.8092	1091.5331	1097.2012	1155.3629	1165.575	1187.3199	1293.3185	1316.4425	1338.2187	1371.1084	1413.3327	1474.6785	1476.1238	1501.3676	1502.8461	2366.1127	3019.1259	3028.2294	3029.0349	3084.4114	3090.8839	3091.2303	3093.2492	3106.595
CC#CC12COC1CO2	CC#C[C@]12CO[C@H]1CO2	
InChI=1S/C7H8O2/c1-2-3-7-5-8-6(7)4-9-7/h6H,4-5H2,1H3	InChI=1S/C7H8O2/c1-2-3-7-5-8-6(7)4-9-7/h6H,4-5H2,1H3/t6-,7-/m0/s1
