15
gdb 49678	2.342	1.86802	1.63125	4.8839	66.19	-0.2526	-0.0549	0.1978	895.4539	0.113733	-453.962174	-453.954725	-453.953781	-453.994264	27.586	
O	-0.4296451701	 0.4733001013	 0.6419405929	-0.26092
C	 0.1265485488	 1.1151918083	-0.2169936738	 0.144455
C	 1.3215737446	 1.9835190688	-0.0167258744	-0.105367
C	 1.4759088369	 2.8292099192	 1.2266959855	-0.050118
C	 0.6561461381	 2.5291695739	 2.4839049786	-0.192931
N	 1.2719893843	 1.2947186195	 2.9413902473	-0.301715
C	 2.0651742309	 0.7040135517	 1.9843298945	 0.421783
O	 2.5057686621	-0.4114687938	 1.9756168862	-0.355507
N	 2.3823863656	 1.7216244903	 0.9876692649	-0.153146
H	-0.2496062966	 1.120499147	-1.2627059769	 0.098832
H	 1.7227866349	 2.3915389291	-0.9411384365	 0.114082
H	 1.8753674265	 3.8307914489	 1.1008826674	 0.119732
H	 0.7812929187	 3.3374302378	 3.2118873065	 0.123084
H	-0.4137868037	 2.4035527904	 2.2807090142	 0.134305
H	 0.786368849	 0.6749781177	 3.5708790534	 0.263433
105.1265	132.14	193.2274	215.0055	302.4459	394.5744	494.9614	513.541	675.59	696.8244	741.2416	772.7015	813.2239	842.8752	878.5132	932.6859	981.38	1033.0956	1046.2889	1074.7431	1118.2437	1122.065	1218.4764	1221.8884	1287.6242	1331.5884	1369.8216	1394.1118	1429.0159	1439.6393	1515.8702	1806.1052	1879.7799	2902.0643	3031.8657	3069.7927	3143.337	3159.5387	3642.1538
O=CC1C2CNC(=O)N12	O=C[C@H]1[C@H]2CNC(=O)N12	
InChI=1S/C5H6N2O2/c8-2-4-3-1-6-5(9)7(3)4/h2-4H,1H2,(H,6,9)	InChI=1S/C5H6N2O2/c8-2-4-3-1-6-5(9)7(3)4/h2-4H,1H2,(H,6,9)/t3-,4+,7?/m1/s1
