19
gdb 82098	2.89984	1.30153	1.04608	2.5823	74.66	-0.255	0.0737	0.3287	1180.4815	0.158335	-422.960276	-422.951919	-422.950975	-422.993637	31.468	
C	-0.0975154667	 1.5791770771	-0.3298419944	-0.409225
C	 0.0060455294	 0.077846106	-0.0953746602	-0.035172
C	 1.0775069957	-0.6891561246	-0.8878132071	 0.021395
O	 2.3565101277	-0.209447376	-0.4515529757	-0.248247
C	 1.6980615247	-1.2099860974	 0.3377974415	 0.007958
C	 0.6825765759	-0.4781496134	 1.233734916	-0.06714
C	 1.2522159509	 0.4861335541	 2.2352613232	 0.080507
C	 0.482952513	 0.943282115	 3.4002006136	-0.183957
O	 1.5021172485	-0.0441835347	 3.5454544126	-0.240738
H	 0.8898681602	 2.0473373192	-0.3022010862	 0.134457
H	-0.5415086953	 1.7857626388	-1.3097382351	 0.115045
H	-0.7266721399	 2.0583091061	 0.4270529901	 0.117493
H	-0.9721384489	-0.3980953216	-0.2178885951	 0.080198
H	 1.024184825	-1.1050971946	-1.8875566129	 0.103106
H	 2.241065187	-2.128259077	 0.5277970937	 0.108958
H	 0.0154477263	-1.1759135941	 1.7473871059	 0.083376
H	 2.0473375012	 1.1294958805	 1.8620859071	 0.109146
H	 0.6997844146	 1.9129952639	 3.8464247484	 0.114632
H	-0.5368706793	 0.5864897528	 3.5445171647	 0.108208
68.9889	118.3827	154.8411	225.7055	233.753	289.3585	333.4068	475.6177	506.6045	621.9105	710.6845	793.2502	847.1978	853.5542	862.9517	868.1085	903.0707	923.5463	975.4842	1010.4929	1030.9975	1054.0461	1071.6262	1101.1408	1133.5939	1156.5617	1173.8517	1191.2907	1201.3234	1235.4203	1245.278	1277.7937	1290.7482	1291.6514	1361.5469	1384.4125	1408.9141	1453.6583	1491.8864	1505.0077	1529.4495	3035.9961	3055.0463	3076.6897	3078.5901	3097.9396	3120.6871	3130.7321	3163.3068	3179.1707	3195.7349
CC1C2OC2C1C1CO1	C[C@H]1[C@H]2O[C@H]2[C@H]1[C@H]1CO1	
InChI=1S/C7H10O2/c1-3-5(4-2-8-4)7-6(3)9-7/h3-7H,2H2,1H3	InChI=1S/C7H10O2/c1-3-5(4-2-8-4)7-6(3)9-7/h3-7H,2H2,1H3/t3-,4-,5-,6-,7+/m1/s1
