22
gdb 6227	2.10945	2.02076	1.56781	1.2773	78.5	-0.2364	0.0734	0.3099	1008.7927	0.196834	-350.199972	-350.189612	-350.188667	-350.234081	38.273	
C	-0.0116003761	 1.5424883007	 0.0625867782	-0.459124
C	 0.0263331027	 0.0227634881	 0.0498122189	 0.237633
C	-1.1914360207	-0.5829480357	-0.629384733	-0.453361
C	 1.3707456376	-0.6632329066	-0.1398706983	 0.010096
O	 2.5506910857	 0.0839863924	-0.247996946	-0.42106
C	 0.7049150379	-0.7199145214	 1.213381812	 0.255518
C	 1.3109174541	 0.0813531758	 2.3551307907	-0.446862
C	 0.1496965836	-2.0556708253	 1.6839816152	-0.45271
H	 0.9468698279	 1.9807158545	 0.3426977186	 0.126244
H	-0.2701652182	 1.9222839296	-0.9335914024	 0.104271
H	-0.7731653943	 1.9158072511	 0.7569911847	 0.114679
H	-1.3268728035	-0.1452372081	-1.6258692098	 0.10861
H	-1.113052322	-1.6645308	-0.7585897971	 0.113458
H	-2.1071981946	-0.3834723735	-0.059448424	 0.114321
H	 1.3748638308	-1.585406957	-0.7249695819	 0.071069
H	 2.5675387217	 0.489179934	-1.1214548138	 0.286589
H	 1.8787579865	 0.9436856863	 2.0084786915	 0.132098
H	 0.5331095131	 0.4292421582	 3.0450287752	 0.107141
H	 1.9992138516	-0.5497064938	 2.9289214412	 0.111761
H	 0.9207274161	-2.6117826719	 2.2298630796	 0.115014
H	-0.696921922	-1.913305378	 2.3663765157	 0.113021
H	-0.1895183179	-2.6909808497	 0.8632869048	 0.111594
108.5263	135.6666	161.597	169.3776	178.3427	227.9059	242.8117	298.7483	311.6519	317.7295	379.4423	388.6794	442.0278	540.2689	554.0667	656.6308	706.2088	850.6715	949.4933	964.2888	978.6894	996.851	1006.8256	1034.1849	1064.379	1128.5954	1144.2259	1167.8281	1205.3245	1234.4353	1282.8048	1309.0072	1349.5594	1401.2833	1411.0455	1416.6878	1426.9003	1462.238	1476.1367	1483.0184	1490.5768	1493.2975	1499.6809	1502.7313	1514.8071	1527.3556	3019.496	3023.9391	3025.3832	3031.7699	3070.0632	3071.6713	3075.2535	3078.1168	3082.2176	3110.4028	3126.9473	3134.7458	3155.2195	3802.4236
CC1(C)C(O)C1(C)C	CC1(C)C(O)C1(C)C	
InChI=1S/C7H14O/c1-6(2)5(8)7(6,3)4/h5,8H,1-4H3	InChI=1S/C7H14O/c1-6(2)5(8)7(6,3)4/h5,8H,1-4H3
