20
gdb 76151	2.06787	1.43579	1.18633	3.4577	80.67	-0.2579	0.036	0.2938	1174.5358	0.168091	-403.159376	-403.148959	-403.148014	-403.193893	38.339	
C	-0.0495351441	 1.5286988958	-0.0004145926	-0.451973
C	 0.0123937258	 0.0115892783	-0.006653301	 0.231038
C	-1.2277636005	-0.6426477398	-0.5898285785	-0.458934
C	 1.3254961916	-0.6635730444	-0.2402656211	 0.03323
O	 2.432952242	 0.1421624254	-0.4783517587	-0.414118
C	 0.7175745575	-0.6925018856	 1.1812103222	 0.062024
C	 1.3798555483	 0.1120284109	 2.291899396	-0.474464
C	 0.1804914387	-1.9554703295	 1.6131966902	 0.244376
N	-0.2382133081	-2.9764340702	 1.9653863246	-0.362427
H	 0.8913400939	 1.9898058694	 0.2974905384	 0.137997
H	-0.2859259466	 1.8875855948	-1.0078151007	 0.126387
H	-0.8417569882	 1.8788731886	 0.6697717132	 0.122152
H	-1.3704713765	-0.3166498961	-1.6258780176	 0.121067
H	-1.1659801885	-1.7331187929	-0.5802735168	 0.141157
H	-2.1194168092	-0.3570537918	-0.0212321588	 0.127864
H	 1.3126840152	-1.6065439396	-0.7855557124	 0.106997
H	 3.2261833986	-0.3522903	-0.2445147868	 0.297577
H	 2.0415362049	 0.8707123442	 1.8727057094	 0.139414
H	 0.636400372	 0.604368446	 2.9253771678	 0.135985
H	 1.9787145733	-0.5454991335	 2.9286477632	 0.134651
119.9681	143.3653	154.8806	165.5606	193.4998	213.7906	236.7519	279.1933	301.9544	334.6357	366.3773	407.4595	456.1769	538.9463	571.0355	596.5275	661.2834	708.8352	854.0339	930.1184	975.6319	1003.1899	1014.3197	1055.3043	1092.1914	1141.6397	1157.4768	1184.9066	1204.2291	1270.1657	1303.3629	1339.3941	1406.1889	1414.3982	1425.1941	1468.2568	1480.3015	1486.0067	1493.1396	1499.9573	1506.7632	1521.2846	2335.6265	3033.8433	3041.4813	3049.9259	3094.7865	3098.1814	3110.3978	3111.2583	3125.1367	3143.6968	3157.1629	3804.1978
CC1(C)C(O)C1(C)C#N	CC1(C)[C@@H](O)[C@]1(C)C#N	
InChI=1S/C7H11NO/c1-6(2)5(9)7(6,3)4-8/h5,9H,1-3H3	InChI=1S/C7H11NO/c1-6(2)5(9)7(6,3)4-8/h5,9H,1-3H3/t5-,7+/m1/s1
