17
gdb 52380	7.23387	0.53163	0.50301	2.3996	74.05	-0.2498	-0.0763	0.1735	2035.0953	0.133306	-455.158252	-455.148185	-455.147241	-455.195427	33.607	
N	-0.0003903522	 1.3843743118	 0.2297605146	-0.511148
C	-0.0027148847	 0.1217878918	 0.0353063561	 0.289375
N	-1.1498449335	-0.6093258496	-0.1313695784	-0.332925
C	-2.437935565	 0.0460278386	-0.2703548246	-0.136396
C	-3.5827221555	-0.9469781115	-0.0413677964	-0.299888
C	-4.9319039491	-0.2586747133	-0.044625289	 0.159666
O	-5.8659173723	-0.586683607	-0.7274928765	-0.227876
C	 1.2613003295	-0.7127571077	 0.0168495205	 0.108614
O	 2.3532568467	-0.2366027309	 0.1746956301	-0.23063
H	 0.9644018943	 1.6827722808	 0.3857860671	 0.238026
H	-1.0547638426	-1.5212560262	-0.5520215014	 0.244157
H	-2.4679434641	 0.8553178979	 0.4653064641	 0.152614
H	-2.5361593974	 0.5221840287	-1.2571892181	 0.126331
H	-3.5985279904	-1.7375205319	-0.7985873743	 0.121687
H	-3.4490694969	-1.4145117864	 0.9444121969	 0.133867
H	-5.0080233479	 0.6025402732	 0.6592434225	 0.083225
H	 1.1224028112	-1.8051962483	-0.1523654134	 0.0813
33.5065	57.278	65.6446	91.7905	145.5284	210.3077	249.2606	291.2625	341.4735	415.5415	496.5829	525.2245	573.6924	732.7922	780.2091	856.9249	879.0875	939.1121	1001.124	1025.6349	1062.8191	1106.5267	1136.6178	1177.2348	1220.2838	1267.7335	1310.6011	1328.0157	1395.796	1428.3355	1435.025	1467.4801	1516.366	1549.1835	1702.519	1835.9748	1840.3991	2865.5091	2870.985	2999.1978	3021.6688	3081.2157	3098.4215	3469.054	3615.4578
N=C(NCCC=O)C=O	N=C(NCCC=O)C=O	
InChI=1S/C5H8N2O2/c6-5(4-9)7-2-1-3-8/h3-4H,1-2H2,(H2,6,7)	InChI=1S/C5H8N2O2/c6-5(4-9)7-2-1-3-8/h3-4H,1-2H2,(H2,6,7)
