18
gdb 36509	4.22883	0.963	0.82898	2.5549	79.12	-0.2472	0.021	0.2682	1364.9061	0.148124	-401.928993	-401.920528	-401.919584	-401.962517	31.702	
C	-0.0529593228	-1.2595966522	-0.078690376	-0.4406
C	-0.0319120741	-0.0605430741	-0.0045197028	 0.317264
C	-0.0040347133	 1.3945716373	 0.0511839534	-0.365386
C	 1.423647089	 1.9841675752	 0.0726130004	 0.045942
C	 1.404996554	 3.5076779494	-0.1085468788	-0.244859
C	 2.7990836692	 4.0534314308	 0.1719827333	-0.081981
O	 3.26959372	 3.6407857853	 1.4641523705	-0.223644
C	 2.8711113461	 2.4117158506	 1.870730526	 0.129947
N	 2.0821457916	 1.593327855	 1.3181513561	-0.265793
H	-0.0697714033	-2.3198573073	-0.1275451969	 0.191674
H	-0.5407953184	 1.8026680127	-0.8153075174	 0.121689
H	-0.5348460131	 1.7446488699	 0.9452776203	 0.131945
H	 1.9789850288	 1.5284123484	-0.7583397916	 0.09854
H	 1.0930478192	 3.7891085356	-1.1198425897	 0.107683
H	 0.6904534161	 3.9541125771	 0.5939562402	 0.113899
H	 3.5134646147	 3.6999509203	-0.5828261089	 0.115741
H	 2.8231195536	 5.1456023267	 0.181132284	 0.121301
H	 3.3411685827	 2.1731089492	 2.8233449578	 0.126637
71.4513	90.4765	137.5758	249.7235	297.0285	344.327	361.2743	397.5321	522.8738	560.1919	585.8612	612.8829	637.3881	791.6357	821.9126	869.0842	909.866	956.3751	965.4492	969.6654	1022.431	1071.3734	1101.8069	1120.7247	1177.5859	1220.5639	1243.383	1266.7629	1304.7863	1353.7258	1358.3163	1377.2638	1402.6404	1417.8893	1461.6983	1479.9799	1511.4698	1731.29	2242.2902	3010.5737	3019.608	3024.8046	3035.489	3058.0235	3084.0905	3102.5781	3156.5708	3508.6357
C#CCC1CCOC=N1	C#CC[C@H]1CCOC=N1	
InChI=1S/C7H9NO/c1-2-3-7-4-5-9-6-8-7/h1,6-7H,3-5H2	InChI=1S/C7H9NO/c1-2-3-7-4-5-9-6-8-7/h1,6-7H,3-5H2/t7-/m0/s1
