19
gdb 95859	2.46819	1.41384	1.13717	1.4624	76.83	-0.2556	0.0335	0.2891	1155.6056	0.158694	-423.000584	-422.991903	-422.990959	-423.033641	33.394	
C	 0.0553542689	 1.5226450337	-0.0000417279	-0.407291
C	 0.0514986	 0.0113569084	-0.0551767606	 0.217869
O	 0.775869103	-0.3965450385	-1.1918644327	-0.249701
C	 0.8292085558	-1.8129323934	-1.2996970855	-0.089915
C	 1.4731850848	-2.411688497	-0.0496157941	-0.217347
C	 0.7349571591	-1.8889315776	 1.1998220796	-0.069933
O	 0.6444555339	-0.4646645582	 1.1418277163	-0.253755
C	-0.5808696572	-2.5215867769	 1.3754347018	 0.351024
C	-1.6498393569	-3.0512026641	 1.5247509818	-0.493824
H	 1.0844946233	 1.8827630732	 0.0722910141	 0.133271
H	-0.4014008656	 1.9275047448	-0.9058394326	 0.125803
H	-0.5053858298	 1.8655924574	 0.8721312108	 0.127432
H	-0.9755053113	-0.3903773458	-0.1217909202	 0.068465
H	-0.185002179	-2.220844695	-1.4370466462	 0.103078
H	 1.4122299909	-2.0368287881	-2.1965425664	 0.111502
H	 1.450349623	-3.5050868253	-0.0791493471	 0.110498
H	 2.5152428086	-2.0834753713	 0.0123477	 0.114439
H	 1.3343526623	-2.0936284451	 2.0931486766	 0.11571
H	-2.5946512334	-3.5155997512	 1.6665320523	 0.202673
112.2664	117.2327	199.1605	202.7763	271.284	311.4071	324.6086	406.3621	441.0286	527.1628	566.4462	627.779	633.5541	673.8222	694.7119	813.5805	860.7537	873.2304	911.2872	958.9946	981.5763	1065.501	1071.2009	1101.5366	1123.9884	1153.8299	1178.8101	1244.8423	1269.9848	1316.3812	1367.7804	1370.4707	1389.6258	1391.7624	1417.5355	1434.5743	1464.3641	1481.4345	1488.7744	1503.3744	2228.4995	2948.2594	2985.4571	3048.467	3058.3194	3058.8224	3095.2567	3107.2768	3139.8872	3142.4054	3501.0872
CC1OCCC(O1)C#C	C[C@H]1OCC[C@@H](O1)C#C	
InChI=1S/C7H10O2/c1-3-7-4-5-8-6(2)9-7/h1,6-7H,4-5H2,2H3	InChI=1S/C7H10O2/c1-3-7-4-5-8-6(2)9-7/h1,6-7H,4-5H2,2H3/t6-,7-/m0/s1
