21
gdb 111000	2.54567	1.42665	1.11375	1.4846	78.02	-0.2404	0.0761	0.3165	1175.6723	0.182702	-424.20963	-424.200846	-424.199902	-424.242787	34.093	
C	 0.0801529275	 1.5234254793	 0.1115929538	-0.500659
C	-0.0134966301	 0.0250027854	 0.0251575684	 0.397262
C	 0.7837357221	-0.7151619482	-1.0781326474	-0.252917
C	 0.5434797624	-2.1738160357	-0.5755610104	-0.229393
C	-0.3180646847	-1.81036337	 0.6483014849	 0.08227
O	 0.4322259766	-0.6951025801	 1.2276843454	-0.339441
C	-1.3383783794	-0.7921410459	 0.089450733	-0.00723
C	-2.3662912584	-0.3122441978	 1.0923172087	-0.121762
O	-3.2910586536	-1.3775921505	 1.2888718671	-0.429031
H	 1.1217989106	 1.8267684836	 0.2601501306	 0.129712
H	-0.276914833	 1.9822195247	-0.8163608992	 0.121876
H	-0.510771943	 1.9176935855	 0.9427532213	 0.126059
H	 0.3922168088	-0.5267783645	-2.0817819695	 0.095595
H	 1.8373439905	-0.4267053698	-1.0551965887	 0.102512
H	 0.0160952916	-2.8051540694	-1.2957184283	 0.099572
H	 1.4670048691	-2.6759077449	-0.2802293563	 0.105628
H	-0.593936415	-2.5826770896	 1.3648695676	 0.082754
H	-1.8188778843	-1.0425660115	-0.8620474534	 0.067088
H	-1.8628416638	-0.039168295	 2.0294501552	 0.103156
H	-2.8770715673	 0.5850711235	 0.7062561297	 0.080786
H	-3.9189121465	-1.1069044189	 1.9649579975	 0.286163
93.7891	151.4528	197.5971	221.6414	249.4315	271.0138	293.0456	346.9504	426.7958	497.8812	590.2937	633.9905	709.2419	812.2993	819.9012	852.2619	882.5995	898.5817	923.1176	956.0019	972.7463	1005.8398	1047.4823	1072.9336	1074.7895	1118.6925	1137.0736	1175.6208	1193.8343	1216.7742	1241.2035	1245.2095	1270.3344	1275.1064	1299.1076	1302.5963	1339.7397	1392.4881	1415.2033	1457.5825	1478.5178	1484.2493	1493.9147	1501.904	1524.2431	2965.8609	3027.0144	3037.452	3057.5109	3059.662	3070.1632	3102.9292	3106.2325	3115.5473	3122.3981	3136.8336	3830.0752
CC12CCC(O1)C2CO	C[C@@]12CC[C@@H](O1)[C@H]2CO	
InChI=1S/C7H12O2/c1-7-3-2-6(9-7)5(7)4-8/h5-6,8H,2-4H2,1H3	InChI=1S/C7H12O2/c1-7-3-2-6(9-7)5(7)4-8/h5-6,8H,2-4H2,1H3/t5-,6-,7+/m1/s1
