14
gdb 56417	3.90538	0.63045	0.58553	2.9599	75.11	-0.2859	-0.0132	0.2727	1807.0132	0.100162	-395.70554	-395.695939	-395.694995	-395.742375	32.275	
N	-0.5355924914	 1.0924862599	 0.2931694188	-0.483298
C	 0.0589759675	-0.1916900905	-0.0907579312	-0.300394
C	 0.830257427	-0.1335174341	-1.3605187868	 0.272885
N	 1.3988970416	-0.0327799515	-2.361567775	-0.316044
C	 0.9047916314	-0.7214532603	 0.9818011964	 0.165949
C	 1.6014080299	-1.1589888055	 1.8559929773	 0.089461
C	 2.452865745	-1.6881102222	 2.9185483117	-0.474098
C	 1.8280796974	-2.791332251	 3.6597321375	 0.281838
N	 1.3486026484	-3.6596770558	 4.24995819	-0.292489
H	 0.1986412015	 1.7820399497	 0.4259191556	 0.250478
H	-1.1272661237	 1.4288586737	-0.4614977165	 0.251478
H	-0.7675758697	-0.8960839434	-0.2551577734	 0.171659
H	 3.4028314343	-2.0448444735	 2.5006960368	 0.192414
H	 2.7086772208	-0.8935050957	 3.6308507988	 0.190161
13.1586	70.4417	91.1754	148.8879	215.7881	250.7193	307.1135	312.7175	373.2966	389.3471	472.4425	519.5814	598.0324	616.723	787.7938	847.734	924.8248	934.527	954.4636	1067.5185	1176.1657	1195.7845	1235.0613	1314.5171	1338.7735	1392.5274	1444.8501	1657.6572	2350.4624	2373.9059	2393.6295	3027.8332	3031.5245	3063.4476	3494.3132	3579.1103
NC(C#N)C#CCC#N	N[C@@H](C#N)C#CCC#N	
InChI=1S/C6H5N3/c7-4-2-1-3-6(9)5-8/h6H,2,9H2	InChI=1S/C6H5N3/c7-4-2-1-3-6(9)5-8/h6H,2,9H2/t6-/m1/s1
