13
gdb 132246	3.62559	1.18517	0.8932	2.9205	77.03	-0.2642	-0.059	0.2052	1176.0504	0.089546	-423.607659	-423.600582	-423.599638	-423.639332	27.056	
F	 0.0089789224	 0.0449281895	 0.0030857401	-0.069906
C	-0.0073182231	 1.3743331484	 0.0102475058	 0.36595
C	-1.242771045	 2.011831682	 0.0306289092	-0.371918
C	-1.2425679093	 3.4095175605	 0.0379518701	 0.190001
C	-0.0020924227	 4.0706536921	 0.0243168946	-0.21466
C	 1.1547752856	 3.3083831788	 0.0043806087	 0.01107
N	 1.1639884138	 1.9682495156	-0.0027748132	-0.316529
C	-2.4642716091	 4.1403250605	 0.0586246434	 0.214714
C	-3.4949327007	 4.7615266579	 0.0760910191	-0.382311
H	-2.1614560533	 1.4407433519	 0.0403072506	 0.128539
H	 0.0435667684	 5.15205012	 0.0293537339	 0.115974
H	 2.1288565967	 3.7894510355	-0.006524427	 0.12423
H	-4.4051829137	 5.3088260474	 0.0915142947	 0.204845
137.3079	143.1625	225.6969	370.5544	410.2083	461.8823	486.8476	551.0941	576.3185	626.1381	647.7333	671.3905	754.8685	757.676	864.0952	896.5028	969.3451	989.58	1005.7695	1132.3927	1166.8095	1282.7591	1319.1804	1334.7243	1439.3404	1509.4343	1588.6592	1638.8273	2232.5658	3169.7933	3219.8225	3225.0046	3500.5201
FC1=CC(=CC=N1)C#C	Fc1cc(ccn1)C#C	
InChI=1S/C7H4FN/c1-2-6-3-4-9-7(8)5-6/h1,3-5H	InChI=1S/C7H4FN/c1-2-6-3-4-9-7(8)5-6/h1,3-5H
