16
gdb 61712	2.5698	1.17187	1.00849	3.0016	68.91	-0.2623	-0.0729	0.1894	1215.4612	0.119439	-475.026361	-475.016504	-475.01556	-475.061628	33.774	
C	-0.0003755447	 1.5929482074	-0.1922425482	-0.438904
C	 0.1445953277	 0.0657618889	-0.0421876089	 0.155404
O	 0.6808202705	-0.3465814516	 1.1990303479	-0.232285
C	-0.005958283	-0.1029997185	 2.346128695	 0.135233
N	 0.5120647902	-0.4480218625	 3.4409038697	-0.441299
C	-1.2045377721	-0.6042951424	-0.3635788576	 0.142462
O	-1.8401466262	-1.2484513182	 0.4233169078	-0.235827
C	 1.1444349716	-0.4520388403	-1.0880257277	 0.125408
O	 1.0435784169	-0.208530597	-2.2601572726	-0.249169
H	 0.9395954244	 2.0734556122	 0.0908830339	 0.153569
H	-0.2179214819	 1.834619801	-1.2348984317	 0.158611
H	-0.8012128676	 1.9859909639	 0.4389415803	 0.136548
H	-0.9703301255	 0.3883262822	 2.2011406245	 0.105423
H	-0.109264455	-0.2071727951	 4.2102884618	 0.233901
H	-1.5375332457	-0.4266670515	-1.4070412705	 0.121404
H	 1.9465739506	-1.0830877785	-0.6563151236	 0.129522
71.1572	93.4761	101.2213	154.8758	186.9764	215.1782	237.8359	286.8599	324.2332	343.4644	422.7366	476.8716	599.8643	689.474	816.6792	832.1673	889.3454	935.4148	954.9601	1021.2858	1033.2949	1081.7025	1153.5018	1185.3857	1220.0531	1283.7019	1375.7755	1391.8741	1402.7131	1426.8446	1488.6986	1493.9514	1743.0445	1817.2846	1851.1979	2928.9337	2947.9684	3052.5438	3098.688	3132.1428	3143.2169	3520.8918
CC(OC=N)(C=O)C=O	CC(O[CH][NH])(C=O)C=O	
InChI=1S/C5H7NO3/c1-5(2-7,3-8)9-4-6/h2-4,6H,1H3	InChI=1S/C5H7NO3/c1-5(2-7,3-8)9-4-6/h2-4,6H,1H3
