16
gdb 65756	2.61107	1.24238	1.10862	4.0824	67.05	-0.275	-0.0044	0.2706	1145.7154	0.122386	-475.038079	-475.02929	-475.028346	-475.071921	31.286	
C	-0.0033856667	 1.6534611636	 0.0080025463	-0.444677
C	-0.0166198668	 0.1342426797	 0.0042443605	 0.236913
C	 0.7637254912	-0.5766872824	-1.1228185932	-0.118886
O	 1.7094954058	-1.1098412667	-0.1400170962	-0.249629
C	 1.0134068367	-0.55348352	 0.9047601	 0.409332
N	 1.18605847	-0.6030292915	 2.1440975282	-0.542883
O	-1.350153817	-0.3751153461	 0.0846630927	-0.238611
C	-1.9720187218	-0.3676334557	 1.2946180202	 0.14601
O	-3.1081494382	-0.714761459	 1.4069758075	-0.268191
H	 1.010468665	 2.0324808746	-0.1474960067	 0.137485
H	-0.6515640875	 2.0318446419	-0.7877109841	 0.142897
H	-0.363721914	 2.0360924045	 0.9668628544	 0.147348
H	 0.209149682	-1.3768726436	-1.6145316603	 0.145117
H	 1.2699349669	 0.0646873692	-1.8465779567	 0.128686
H	 1.9897558763	-1.1781772177	 2.4017077616	 0.239845
H	-1.3211015617	-0.0387592309	 2.1196964559	 0.129245
85.2398	113.7851	141.8595	175.5055	227.7	240.2454	319.6117	341.2536	405.9583	501.5063	565.0857	690.4804	761.6013	779.5388	871.0335	921.6842	945.1591	967.7154	988.5449	1022.0544	1047.5478	1133.8994	1152.3435	1183.795	1211.9955	1247.4666	1248.9304	1373.658	1411.8707	1437.0865	1484.4576	1488.6192	1509.3076	1825.8219	1861.5796	3030.2095	3045.6657	3079.7435	3125.101	3126.3105	3149.8294	3480.6605
CC1(COC1=N)OC=O	C[C@]1(CO[C]1[NH])OC=O	
InChI=1S/C5H7NO3/c1-5(9-3-7)2-8-4(5)6/h3,6H,2H2,1H3	InChI=1S/C5H7NO3/c1-5(9-3-7)2-8-4(5)6/h3,6H,2H2,1H3/t5-/m1/s1
