19
gdb 128322	3.13041	1.22164	0.89166	2.3634	80.59	-0.1823	0.0509	0.2332	1309.2522	0.16022	-415.406018	-415.396041	-415.395096	-415.440604	35.947	
C	 0.0545971791	 1.4396148818	-0.0528987902	-0.309684
N	-0.0924397641	-0.0076563839	-0.0756983732	-0.37686
C	 0.5960687184	-0.7119288731	-1.055476354	 0.35284
N	 1.1724154989	-0.0981947428	-2.0790605686	-0.332854
N	 1.6322099314	-1.1319815486	-2.8579818529	-0.276332
C	 1.3919606342	-2.3463933283	-2.3049439135	 0.307605
N	 1.8661343817	-3.517458783	-2.9079370328	-0.610619
C	 0.6942209983	-2.1346776654	-1.1317758073	 0.068938
C	 0.1108428663	-3.1434644918	-0.1948261088	-0.536318
H	 1.09475939	 1.7724558209	 0.0797383142	 0.112492
H	-0.3002122608	 1.851204379	-1.0008424482	 0.144775
H	-0.5575453493	 1.8449260311	 0.7569378681	 0.108041
H	-0.0126732674	-0.4341424644	 0.836133947	 0.231147
H	 2.285751543	-0.9271428002	-3.5928417993	 0.260573
H	 1.5681302188	-3.61232656	-3.8726162014	 0.248371
H	 1.5791702357	-4.3405498782	-2.3942214571	 0.249228
H	 0.7148702862	-3.2971380836	 0.7100998107	 0.120416
H	-0.8905202784	-2.8406712867	 0.1336245775	 0.130947
H	 0.0052662181	-4.1237644827	-0.6747460604	 0.107294
89.4555	125.4903	155.6864	170.2171	182.802	202.	248.2691	286.0523	294.2568	345.7837	427.22	527.9104	543.2734	641.0597	651.3214	737.5473	750.5127	785.2804	798.8414	952.4363	1062.1366	1063.399	1097.4171	1112.4946	1154.5598	1185.9474	1209.4854	1252.1521	1338.7863	1402.6445	1419.378	1449.8299	1478.3925	1482.0939	1491.4166	1503.7537	1516.6882	1556.0854	1581.8618	1632.7725	1674.2671	2994.1561	3002.1806	3050.4235	3077.55	3083.6833	3126.9451	3519.3033	3590.2588	3616.463	3686.529
CNC1=NNC(N)=C1C	CNc1n[nH]c(N)c1C	
InChI=1S/C5H10N4/c1-3-4(6)8-9-5(3)7-2/h1-2H3,(H4,6,7,8,9)	InChI=1S/C5H10N4/c1-3-4(6)8-9-5(3)7-2/h1-2H3,(H4,6,7,8,9)
