19
gdb 80031	3.01976	1.37922	1.16439	0.4808	86.98	-0.2298	-0.0007	0.229	1122.1068	0.159184	-348.68863	-348.680638	-348.679694	-348.720623	32.466	
C	-0.0347018827	 1.7254758771	 0.0186511113	-0.4359
C	 0.0346482873	 0.2096556405	 0.0196156466	 0.053898
C	 1.1546763317	-0.5702642043	-0.7649449952	-0.090424
C	 2.4244752748	-0.0618764251	-0.0758458121	-0.101277
C	 2.1008405637	-0.0758421608	 1.2210519648	-0.101275
C	 0.6587467408	-0.5916639176	 1.2223817376	-0.09042
C	 0.8193850757	-1.7920114331	 0.1938849055	-0.157386
C	-0.3603187257	-2.5773905469	-0.108969022	 0.30119
C	-1.3218124833	-3.2579772413	-0.3561758847	-0.439606
H	 0.9289125096	 2.178961476	 0.2638370565	 0.119303
H	-0.3461255593	 2.0954313278	-0.9646207843	 0.113739
H	-0.773164657	 2.0769746096	 0.7478973331	 0.11374
H	-0.9461689864	-0.2067958859	-0.2296302283	 0.09002
H	 1.1415798538	-0.6810884191	-1.8486983883	 0.066992
H	 3.3478242191	 0.2194329908	-0.5614545625	 0.101489
H	 2.6863898721	 0.1908914745	 2.0891011749	 0.101489
H	 0.1386176737	-0.724364985	 2.1704490221	 0.066991
H	 1.6718268548	-2.4439520204	 0.3995884455	 0.09629
H	-2.1731784628	-3.8536458769	-0.5748260505	 0.191147
141.8094	149.4196	219.2608	272.1959	274.0792	388.4511	471.8074	473.9897	567.4786	577.0554	623.0796	629.3025	720.6316	735.7337	738.0264	819.3497	878.4767	900.9709	910.5832	922.074	925.4545	985.2266	1028.5805	1056.6168	1062.1521	1095.5678	1116.6391	1161.2749	1185.2633	1188.474	1215.3356	1254.4038	1256.7074	1327.5076	1337.3836	1398.512	1416.0133	1493.1557	1501.0031	1620.63	2224.0372	3031.9668	3067.3755	3078.3927	3089.5479	3119.3699	3123.618	3126.0588	3221.5438	3248.1509	3503.7605
CC1C2C=CC1C2C#C	C[C@H]1[C@H]2C=C[C@@H]1[C@H]2C#C	
InChI=1S/C9H10/c1-3-7-8-4-5-9(7)6(8)2/h1,4-9H,2H3	InChI=1S/C9H10/c1-3-7-8-4-5-9(7)6(8)2/h1,4-9H,2H3/t6-,7-,8+,9-
