19
gdb 120356	3.18231	0.98549	0.79992	2.3757	77.35	-0.2453	-0.016	0.2292	1452.4749	0.160008	-419.266195	-419.257217	-419.256273	-419.300656	32.604	
C	-0.0268670465	 1.5796774324	 0.0589734276	-0.3847
C	-0.0074841	 0.049823463	 0.0099482042	-0.171274
C	 0.7142248203	-0.4909692085	-1.2273785465	-0.16327
C	 0.7054708959	-2.0236999433	-1.3101953957	-0.13039
N	-0.640875349	-2.5792139732	-1.5266718903	-0.241609
C	-0.5644464055	-3.285005182	-2.5865891179	 0.066825
N	 0.6848456474	-3.3364263622	-3.1959303476	-0.339775
C	 1.5720571253	-2.5470028985	-2.4679521384	 0.41935
O	 2.7319327704	-2.3403219566	-2.7252401876	-0.365542
H	 0.9886471645	 1.9913048402	 0.0677587209	 0.11458
H	-0.5445135007	 1.9973436058	-0.8117917291	 0.11465
H	-0.5406471254	 1.9411386776	 0.9550758058	 0.113001
H	 0.482984005	-0.3413256845	 0.9112445234	 0.093731
H	-1.0308548117	-0.3401772238	 0.0229346944	 0.121974
H	 0.249151203	-0.0881144428	-2.1361985921	 0.100258
H	 1.7618739097	-0.1672348356	-1.2382173081	 0.119562
H	 1.1052014651	-2.4317764544	-0.3717073233	 0.123232
H	-1.3959762549	-3.8299467011	-3.022422148	 0.140348
H	 0.9227976774	-3.8185563223	-4.0475637316	 0.26905
72.1816	88.7631	109.5542	149.4579	248.3333	268.5739	301.2618	345.3296	497.3206	521.3036	612.1571	660.1849	708.5179	749.179	834.9888	870.6798	896.5082	919.93	945.9631	959.7053	1045.7401	1064.8113	1088.9924	1127.7666	1138.4845	1190.1138	1244.9592	1251.3815	1300.1346	1328.7993	1336.9096	1351.7995	1389.813	1399.4099	1414.0421	1480.5925	1494.3444	1500.487	1510.6221	1677.1807	1850.6829	3017.9014	3022.0356	3028.5776	3032.5881	3061.581	3078.8297	3099.5844	3103.2621	3190.1692	3653.725
CCCC1N=CNC1=O	CCC[C@H]1N=CNC1=O	
InChI=1S/C6H10N2O/c1-2-3-5-6(9)8-4-7-5/h4-5H,2-3H2,1H3,(H,7,8,9)	InChI=1S/C6H10N2O/c1-2-3-5-6(9)8-4-7-5/h4-5H,2-3H2,1H3,(H,7,8,9)/t5-/m1/s1
