18
gdb 109066	4.03155	1.22334	1.10509	1.4708	76.71	-0.2202	0.0121	0.2324	1127.1986	0.148849	-401.890635	-401.883073	-401.882129	-401.922901	29.531	
O	-0.0014064261	 1.4159667718	-0.0534564331	-0.413681
C	-0.0260239882	 0.0011047043	-0.0200119217	-0.1943
C	-1.4378607749	-0.4671071619	 0.1102181013	 0.324348
C	-2.558147725	 0.2684224562	 0.1368908127	-0.187584
C	-3.7485044385	-0.6550526753	 0.0702051106	-0.120018
C	-3.6778566725	-1.3490309579	-1.3381914344	-0.140038
N	-2.8567284751	-2.4756399457	-0.8086366552	-0.164365
C	-3.2146082611	-2.0296681369	 0.5747032099	-0.037447
C	-1.8034644385	-1.9090496563	 0.1627207939	-0.133965
H	 0.9157787213	 1.6980858835	-0.1084309077	 0.290563
H	 0.4171018146	-0.4323177173	-0.9343568753	 0.103283
H	 0.5702418437	-0.3910067379	 0.823667214	 0.095368
H	-2.6101058769	 1.3415802027	 0.0122295419	 0.114077
H	-4.7094237264	-0.2698998583	 0.4060420745	 0.072538
H	-4.6401690212	-1.7702024381	-1.6389603836	 0.112274
H	-3.2396759013	-0.7775831344	-2.1630300142	 0.099741
H	-3.62349356	-2.6919718121	 1.3314445458	 0.091208
H	-1.0768348939	-2.6743422765	 0.4114677106	 0.087998
70.6971	166.6403	190.989	235.3983	376.5443	391.0679	449.4457	566.462	654.0455	677.7086	731.1551	792.4299	818.1097	858.5179	870.6893	892.8686	919.1217	949.1714	992.5244	1012.9779	1045.4621	1056.6021	1077.4382	1083.3797	1159.748	1174.3974	1188.2585	1203.7597	1215.7837	1247.1508	1262.7168	1273.6399	1291.1818	1333.8319	1374.552	1468.5156	1491.9661	1508.9765	1687.4093	2937.3795	2950.6399	3043.902	3109.0017	3129.7166	3156.1233	3180.3724	3229.1764	3839.5463
OCC1=CC2CN3C2C13	OCC1=C[C@H]2CN3[C@H]2[C@H]13	
InChI=1S/C7H9NO/c9-3-5-1-4-2-8-6(4)7(5)8/h1,4,6-7,9H,2-3H2	InChI=1S/C7H9NO/c9-3-5-1-4-2-8-6(4)7(5)8/h1,4,6-7,9H,2-3H2/t4-,6+,7-,8?/m0/s1
