16
gdb 17179	4.01718	1.95528	1.63144	2.5965	64.4	-0.2285	0.0769	0.3054	823.9542	0.129603	-383.629721	-383.622839	-383.621895	-383.660943	26.207	
C	-0.0040406979	 1.3801909175	-0.0020390478	-0.262592
O	-0.0367480741	-0.0328316592	 0.1153819537	-0.281475
C	 0.6232326023	-0.5193022762	 1.2074525781	 0.416903
C	 0.3404910941	-0.302495748	 2.7172153478	-0.349773
C	 1.5077730625	-1.3112729387	 2.7014725497	-0.096458
C	 0.9993291982	-2.0167744447	 1.4047556998	 0.02442
O	 2.277880706	-1.9281317251	 0.7129754725	-0.32433
C	 2.1807010708	-0.6748703491	 1.4482891355	 0.011821
H	 1.0262279452	 1.7507853618	-0.0923715371	 0.115582
H	-0.5558584889	 1.635792999	-0.9084080066	 0.135249
H	-0.4813672271	 1.8683404718	 0.8584825425	 0.116772
H	 0.5602465776	 0.6857430453	 3.1300075984	 0.101059
H	-0.6190244176	-0.6721220406	 3.0888292561	 0.105232
H	 2.0241696291	-1.7880049275	 3.5300534794	 0.094267
H	 0.3898932435	-2.9114881635	 1.283104493	 0.098832
H	 2.9977377963	 0.0426877571	 1.380399405	 0.094491
79.7593	172.5401	208.732	321.7389	363.4616	457.891	556.8598	664.273	735.4009	783.1572	845.6655	853.0178	884.094	904.8553	926.6612	990.0925	1030.5339	1056.4554	1066.762	1093.7204	1119.1634	1134.4441	1162.414	1169.1026	1180.5047	1209.2015	1231.3189	1253.339	1299.4048	1365.2287	1486.2758	1489.6264	1504.344	1517.1546	2997.8496	3052.2219	3056.2985	3112.9887	3124.8851	3130.693	3131.3199	3165.8611
COC12CC3C1OC23	CO[C@@]12C[C@H]3[C@@H]1O[C@@H]23	
InChI=1S/C6H8O2/c1-7-6-2-3-4(6)8-5(3)6/h3-5H,2H2,1H3	InChI=1S/C6H8O2/c1-7-6-2-3-4(6)8-5(3)6/h3-5H,2H2,1H3/t3-,4-,5+,6-
