20
gdb 29770	2.41314	1.50373	0.94292	0.8564	84.24	-0.172	0.0586	0.2305	1271.912	0.168883	-403.192806	-403.182164	-403.181219	-403.228709	37.236	
C	-0.0718200086	 1.4627905808	 0.0190467878	-0.334222
N	 0.0323955292	 0.0207225397	-0.0036318207	-0.048655
C	 0.0755310786	-0.7846998981	-1.1306728135	-0.220368
C	 0.0916187084	-2.0969601708	-0.7335764427	 0.20776
C	 0.1551001863	-3.2989185539	-1.625051822	-0.499824
C	 0.0433459397	-2.113556055	 0.7037569794	 0.045179
C	 0.0454807419	-3.3168075456	 1.596446171	-0.512587
C	 0.0055070849	-0.7937548665	 1.0933086321	 0.291212
O	-0.0588385254	-0.1971152726	 2.3166688848	-0.447501
H	 0.4169772061	 1.8721637764	-0.8680721041	 0.13326
H	-1.1155038592	 1.8004219543	 0.0320118231	 0.132123
H	 0.426715708	 1.8530011831	 0.9083534861	 0.149708
H	 0.0953083399	-0.3436934831	-2.1146171971	 0.106695
H	 1.0549522288	-3.900302995	-1.4428016866	 0.117394
H	-0.7036978063	-3.9659553918	-1.4763032255	 0.11755
H	 0.1640239615	-3.0059654741	-2.6791324661	 0.116163
H	 0.9941026173	-3.8684259827	 1.5620283849	 0.123935
H	-0.1266212459	-3.0476237758	 2.6463052822	 0.091849
H	-0.745121317	-4.0276742544	 1.3266975361	 0.127241
H	 0.0738452017	-0.875335905	 2.9857280006	 0.303086
66.0898	74.9029	124.762	135.1364	157.1107	188.0817	228.3549	266.3973	272.7004	297.693	332.0691	544.4454	563.3368	598.5736	618.117	650.8768	682.5855	741.4815	856.7364	1004.4265	1025.9294	1048.112	1068.483	1084.4869	1135.4774	1151.9742	1206.7363	1236.0461	1287.8242	1381.2702	1401.9012	1417.6865	1431.0561	1454.0638	1473.5744	1483.4039	1488.0178	1491.2541	1504.515	1513.214	1555.4882	1595.1273	1645.8353	3004.6083	3011.9526	3024.564	3052.4164	3053.7426	3064.6687	3098.2387	3099.3561	3139.0828	3254.8545	3842.0911
CN1C=C(C)C(C)=C1O	Cn1cc(C)c(C)c1O	
InChI=1S/C7H11NO/c1-5-4-8(3)7(9)6(5)2/h4,9H,1-3H3	InChI=1S/C7H11NO/c1-5-4-8(3)7(9)6(5)2/h4,9H,1-3H3
