19
gdb 28901	2.2844	1.76354	1.00765	1.411	86.98	-0.21	0.0106	0.2206	1183.2877	0.159537	-385.975007	-385.966155	-385.965211	-386.008103	33.818	
C	 0.0273539135	 1.5323925929	-0.0002428365	-0.484176
C	 0.0131082736	 0.0265940838	-0.026743873	 0.23502
C	-0.0648616073	-0.6941810271	-1.2165623497	-0.201517
C	-0.0768358383	-2.08678675	-1.2215505455	-0.118006
C	-0.0097517364	-2.7754070973	-0.0163119387	-0.206315
C	 0.0694713564	-2.0942261814	 1.1998013129	 0.213942
C	 0.142714318	-2.8329506312	 2.514038237	-0.538173
C	 0.0797038981	-0.6929402398	 1.1746999643	 0.207116
O	 0.1553574374	 0.0480635644	 2.3232726061	-0.436461
H	 0.9379734451	 1.9149730045	 0.4737690036	 0.132436
H	-0.0309926235	 1.9398551831	-1.0126862463	 0.114581
H	-0.8123471724	 1.9296393479	 0.580586134	 0.132444
H	-0.1169940094	-0.1488377729	-2.1543724796	 0.086903
H	-0.138016525	-2.6294184319	-2.1583411402	 0.087801
H	-0.0183659599	-3.8614098609	-0.0082407117	 0.085852
H	 1.0645928516	-2.6060303398	 3.0673623668	 0.129438
H	-0.7020475412	-2.5914444323	 3.1740172886	 0.129443
H	 0.124098712	-3.9132532631	 2.3533552686	 0.134593
H	 0.1961122978	-0.543283099	 3.0805676993	 0.295079
113.1277	135.0147	160.5998	229.7274	277.8056	286.9049	317.0305	337.8613	484.2987	497.4435	512.2598	558.5518	561.7302	679.5966	749.7432	783.2124	838.9837	897.7237	914.8442	935.3092	1002.6395	1039.7719	1056.8934	1062.0242	1116.7239	1185.8255	1227.3142	1244.6633	1295.1311	1317.1877	1366.9101	1411.9354	1415.1498	1467.5192	1476.9424	1488.7518	1489.5499	1513.6548	1523.747	1637.3557	1652.4638	3001.8997	3032.6736	3044.7439	3083.9347	3116.8862	3117.1574	3163.7192	3169.3212	3194.9518	3839.4316
CC1=CC=CC(C)=C1O	Cc1cccc(C)c1O	
InChI=1S/C8H10O/c1-6-4-3-5-7(2)8(6)9/h3-5,9H,1-2H3	InChI=1S/C8H10O/c1-6-4-3-5-7(2)8(6)9/h3-5,9H,1-2H3
