20
gdb 62672	3.02165	1.37565	1.19031	1.7069	78.72	-0.2445	0.0713	0.3159	1118.3752	0.169897	-403.091318	-403.082589	-403.081645	-403.123851	34.695	
C	-0.0684102727	 1.5555339535	-0.0477233394	-0.462082
C	 0.0694873829	 0.0521157091	 0.0333761261	 0.400044
O	-1.074331334	-0.6301212809	-0.4246456405	-0.471159
C	 1.3592181863	-0.7015524477	-0.2277952285	-0.152791
C	 2.5614634073	-0.0171942728	 0.3786189912	-0.122888
N	 3.1344142491	-0.7819490408	 1.4894136274	-0.369457
C	 1.9111525552	-0.0168717178	 1.7479961683	 0.321554
C	 1.9255555517	 0.9914401106	 2.8605455473	-0.481698
C	 0.6906680616	-0.711007837	 1.172390754	-0.175208
H	 0.8203711382	 2.0708479764	 0.319641573	 0.132026
H	-0.2226197645	 1.8641667801	-1.0897930788	 0.104554
H	-0.9350844173	 1.888215151	 0.5323751853	 0.126232
H	-1.2099810478	-0.388928849	-1.3477010937	 0.281401
H	 1.3782847561	-1.5178714855	-0.9420051837	 0.088069
H	 3.1836914247	 0.7426024898	-0.0809805405	 0.093092
H	 2.9541826205	-1.7791258554	 1.3890895313	 0.223723
H	 2.9057306107	 1.4698755505	 2.9286333408	 0.131641
H	 1.163129734	 1.7627468415	 2.7152074445	 0.118037
H	 1.7257474019	 0.5045653561	 3.8224400638	 0.122026
H	 0.1397701562	-1.5250770019	 1.6311593619	 0.092884
163.4772	175.1234	189.869	241.0726	262.0222	284.1463	340.0749	367.9509	394.9002	473.3661	517.2871	544.3377	628.6876	714.5201	789.0776	812.8872	871.7734	897.0589	930.7879	951.3642	969.4015	993.768	1011.0186	1054.589	1067.2592	1090.5685	1101.4229	1118.9912	1142.4502	1195.0647	1225.6221	1256.373	1273.3858	1290.6628	1311.2296	1393.7629	1411.9646	1429.8485	1435.151	1484.6118	1487.7658	1498.8684	1500.2941	3024.1769	3033.3141	3088.0239	3093.2679	3124.0722	3138.6323	3164.9858	3174.2094	3178.2014	3467.1183	3796.1649
CC1(O)C2C3NC3(C)C12	C[C@@]1(O)[C@H]2[C@@H]3N[C@]3(C)[C@@H]12	
InChI=1S/C7H11NO/c1-6-4-3(5(6)8-6)7(4,2)9/h3-5,8-9H,1-2H3	InChI=1S/C7H11NO/c1-6-4-3(5(6)8-6)7(4,2)9/h3-5,8-9H,1-2H3/t3-,4+,5+,6-,7-/m1/s1
