17
gdb 30833	2.34953	1.37933	0.91707	2.0697	73.12	-0.1844	0.0362	0.2206	1267.0811	0.136159	-455.191896	-455.182835	-455.18189	-455.225833	33.36	
C	 0.2900577754	 1.5933146141	-0.1529886477	-0.368383
C	-0.0064976798	 0.0950314491	 0.039366251	-0.304778
C	 0.5672984693	-0.4825694045	 1.2781786563	 0.221694
C	 0.0832238053	-1.0349580518	 2.4144493028	 0.242386
O	-1.2098731266	-1.2292378506	 2.7503787133	-0.437537
N	 1.1046110499	-1.4230647097	 3.268372698	-0.420083
C	 2.1777326059	-1.0808852394	 2.6171156356	 0.455038
N	 3.4779909468	-1.1751394356	 3.0438940666	-0.58742
O	 1.9684462289	-0.5150653541	 1.4205082604	-0.224071
H	 1.3684232025	 1.7743733796	-0.1889189451	 0.123728
H	-0.1464176276	 1.9594351	-1.0876509606	 0.109036
H	-0.1214523754	 2.1809071061	 0.6730959412	 0.121218
H	-1.0882670891	-0.0698749117	 0.0850663485	 0.125416
H	 0.3528885598	-0.4582891435	-0.8399491227	 0.106967
H	-1.2055505931	-1.6422948146	 3.621613736	 0.302249
H	 3.6040776217	-1.8438599313	 3.7888226704	 0.269881
H	 4.1595389762	-1.2586271822	 2.303999856	 0.264661
61.3865	118.4652	183.6323	229.5185	273.1742	282.6674	296.5989	333.1311	340.7062	435.2994	546.3069	589.8544	624.4933	657.0105	701.7173	758.7146	778.7559	826.5707	964.8225	1011.8036	1040.3979	1082.8096	1113.5073	1148.1369	1196.0122	1282.831	1318.5845	1367.3287	1403.1145	1412.347	1455.1806	1470.4074	1495.8647	1506.7738	1603.3103	1680.0656	1754.4401	3003.6521	3037.858	3074.9583	3109.3701	3116.6283	3577.2479	3686.7501	3814.4715
CCC1=C(O)N=C(N)O1	CCc1c(O)nc(N)o1	
InChI=1S/C5H8N2O2/c1-2-3-4(8)7-5(6)9-3/h8H,2H2,1H3,(H2,6,7)	InChI=1S/C5H8N2O2/c1-2-3-4(8)7-5(6)9-3/h8H,2H2,1H3,(H2,6,7)
