22
gdb 85955	2.67552	1.12841	1.03636	3.2566	82.36	-0.2407	0.031	0.2717	1312.2156	0.192706	-404.385936	-404.375661	-404.374717	-404.421632	38.36	
C	-0.9211546609	 0.9451362361	-0.3680761301	-0.412483
C	 0.179755173	-0.073205007	-0.1190858726	 0.06327
C	 1.4183836089	-0.0877889639	-1.0578992413	-0.270523
C	 2.336634531	-0.2999616823	 0.1764065454	 0.213122
C	 3.6110610874	 0.5460103345	 0.2411098127	-0.457506
C	 1.1391400964	 0.1481269016	 1.0833873794	-0.286355
C	 2.668894825	-1.7882644503	 0.3646481652	 0.357355
N	 3.204826203	-2.1051054776	 1.5845219932	-0.518623
O	 2.5028988373	-2.6307856463	-0.4967211598	-0.366444
H	-0.5132489003	 1.9614381366	-0.422298229	 0.107324
H	-1.4398738583	 0.7447746387	-1.3122167809	 0.117184
H	-1.6701139717	 0.9294487351	 0.4320056684	 0.111682
H	-0.2491402791	-1.079487302	-0.0677695508	 0.083924
H	 1.4665485838	-0.8665774539	-1.8189648999	 0.124991
H	 1.5925358736	 0.890819683	-1.5170848376	 0.083625
H	 3.3700782552	 1.6026645816	 0.0871680449	 0.114807
H	 4.1214372536	 0.4565135175	 1.206033777	 0.107256
H	 4.3210159235	 0.2444299963	-0.5367849245	 0.130477
H	 1.2240311657	 1.208164583	 1.3468859865	 0.093625
H	 0.9483680796	-0.4221778132	 1.9974003214	 0.087916
H	 3.1923618079	-1.4562974972	 2.3517696978	 0.256961
H	 3.3482348854	-3.0805824205	 1.7897073146	 0.258416
27.941	66.3649	195.1675	208.2831	224.7151	231.9919	254.4704	297.1703	321.7849	342.2176	419.8623	464.0304	531.5609	549.9508	601.2366	711.3765	767.3877	822.4519	832.0683	902.0929	909.1628	925.6333	945.0665	1009.6844	1058.1796	1079.897	1091.5962	1133.6045	1175.7331	1195.6986	1210.3729	1241.5243	1260.6222	1289.3832	1293.542	1349.7781	1376.1742	1409.8527	1412.1391	1467.7683	1484.4578	1491.2065	1495.0199	1496.041	1498.7527	1613.4832	1785.6367	3020.315	3026.3294	3035.1913	3044.6679	3054.4353	3085.1312	3089.6951	3093.2286	3094.2988	3100.7152	3137.3081	3600.4046	3734.2893
CC1CC(C)(C1)C(N)=O	C[C@H]1C[C@@](C)(C1)C(=O)N	
InChI=1S/C7H13NO/c1-5-3-7(2,4-5)6(8)9/h5H,3-4H2,1-2H3,(H2,8,9)	InChI=1S/C7H13NO/c1-5-3-7(2,4-5)6(8)9/h5H,3-4H2,1-2H3,(H2,8,9)/t5-,7-
