21
gdb 59374	4.12029	0.87554	0.82667	1.6756	85.37	-0.2512	0.0244	0.2756	1482.8296	0.180075	-387.044742	-387.034777	-387.033833	-387.08018	36.811	
C	 0.2273546802	 1.5235547927	 0.1173731704	-0.390945
C	 0.1565928296	-0.0113334078	 0.1168203723	 0.012029
C	 0.6245109623	-0.5788969501	 1.4634583153	-0.396187
C	-1.2551596874	-0.4583990603	-0.2650124567	 0.16995
C	-1.6315848733	-1.956039732	-0.2396025348	-0.339365
C	-2.685884673	-1.5356413275	 0.8191731818	-0.02793
O	-2.2394792323	-0.15729017	 0.7634066013	-0.304675
C	-4.0847165638	-1.7066077094	 0.4586458643	 0.328766
C	-5.2382067649	-1.8632514317	 0.1584935277	-0.450195
H	 1.235100528	 1.8710785611	 0.3650153466	 0.109188
H	-0.0410467249	 1.9360767368	-0.8609257047	 0.10981
H	-0.4655695576	 1.9371972707	 0.8573904255	 0.135419
H	 0.8193415914	-0.3893257512	-0.6762553604	 0.072958
H	 1.6316523551	-0.2224118098	 1.6998198837	 0.111581
H	-0.0457451709	-0.2565499976	 2.2657708212	 0.13266
H	 0.6578111363	-1.6729464576	 1.465948174	 0.107332
H	-1.5399755682	 0.0323367044	-1.206035006	 0.076637
H	-2.0465833766	-2.3499598971	-1.1667143628	 0.121279
H	-0.8637587728	-2.6335044279	 0.1345842982	 0.115059
H	-2.5102053681	-1.9538901984	 1.8183500564	 0.10561
H	-6.2592143693	-1.9954232975	-0.1023576835	 0.201019
34.2288	84.2054	120.2309	190.5994	213.1608	234.3671	262.6608	289.0094	355.9533	420.1121	504.6633	519.5244	613.7509	617.7347	667.0756	717.844	768.4548	864.1752	918.189	925.9898	944.4661	965.9044	991.3328	1009.2163	1029.6232	1088.197	1106.9733	1134.0605	1174.7123	1206.637	1254.2502	1259.6633	1299.1807	1325.7994	1359.9128	1367.6286	1387.555	1401.208	1423.6932	1481.1571	1490.8856	1497.944	1507.3896	1515.5615	2233.9065	2993.3007	3005.0429	3020.1283	3032.3302	3039.1423	3092.7278	3100.445	3103.0133	3107.6807	3116.1755	3152.0694	3502.804
CC(C)C1CC(O1)C#C	CC(C)[C@H]1C[C@@H](O1)C#C	
InChI=1S/C8H12O/c1-4-7-5-8(9-7)6(2)3/h1,6-8H,5H2,2-3H3	InChI=1S/C8H12O/c1-4-7-5-8(9-7)6(2)3/h1,6-8H,5H2,2-3H3/t7-,8+/m0/s1
