14
gdb 19248	3.32935	2.02284	1.60368	1.9173	62.7	-0.2495	0.036	0.2855	810.3188	0.10561	-382.456693	-382.449472	-382.448528	-382.48813	27.304	
O	 0.0112237397	 1.3825626645	 0.2301438271	-0.419917
C	 0.0236515182	 0.0067763564	 0.0455192279	 0.125118
C	-1.3333785646	-0.7147728125	 0.0456317405	-0.024286
O	-2.0646939631	-0.1495575439	-1.0546045538	-0.247375
C	-1.1401531675	-1.2048340702	-1.3270420854	 0.029679
C	 0.2584606849	-0.5689434728	-1.4393897404	-0.302667
C	 0.4771354504	 0.385948176	-2.5022409854	 0.336667
C	 0.6463578227	 1.2070667105	-3.3642361402	-0.435695
H	-0.6441677478	 1.7383188561	-0.3844097382	 0.295752
H	 0.7461436351	-0.4160810082	 0.746676958	 0.103494
H	-1.9099666019	-1.1133151154	 0.8720194713	 0.113661
H	-1.5202099182	-2.0898778793	-1.8222660629	 0.117635
H	 1.0456094538	-1.3293138227	-1.4187757799	 0.108815
H	 0.7998357282	 1.9225943617	-4.1337328785	 0.199117
100.7934	130.7496	197.5897	323.6648	367.4958	435.4372	530.6056	573.449	627.8063	634.3702	673.1048	748.555	783.3401	863.7276	882.4658	897.4784	926.6767	1019.9213	1051.4494	1065.9399	1111.4563	1160.1883	1226.7846	1232.2731	1263.6948	1306.2324	1330.2676	1382.9305	1445.1051	2235.199	3061.0143	3100.1173	3187.0798	3203.5017	3503.0712	3773.9475
OC1C2OC2C1C#C	O[C@H]1[C@H]2O[C@H]2[C@H]1C#C	
InChI=1S/C6H6O2/c1-2-3-4(7)6-5(3)8-6/h1,3-7H	InChI=1S/C6H6O2/c1-2-3-4(7)6-5(3)8-6/h1,3-7H/t3-,4+,5-,6+/m0/s1
