23
gdb 109773	2.30327	1.1596	0.92313	1.9806	82.8	-0.2373	0.0729	0.3102	1400.587	0.202847	-425.401103	-425.390048	-425.389104	-425.437459	39.848	
C	-0.3095614597	 1.2195065782	 0.1809294801	-0.233093
O	 0.4743656271	 0.0756205275	-0.0982710971	-0.236075
C	 0.8922436015	-0.5888770783	 1.0545107323	 0.095647
C	 0.0389893037	-1.6964666992	 1.642092246	-0.072159
C	-1.3195423255	-2.0454198912	 1.0686323366	-0.410182
C	 1.3200047672	-2.0190440593	 0.8864907893	-0.101315
C	 1.291846098	-2.6951459449	-0.4720411281	 0.134843
C	 2.6163558573	-2.5161274649	-1.2155455347	-0.403704
O	 0.9399036869	-4.0761460373	-0.3556547268	-0.436498
H	 0.2508070705	 1.951404451	 0.7822780309	 0.106883
H	-0.5687241538	 1.6741911481	-0.778081339	 0.127205
H	-1.2313085457	 0.9611872348	 0.7199083531	 0.113773
H	 1.4587897073	 0.0449066486	 1.73964923	 0.078932
H	 0.1093446573	-1.8056219513	 2.7216677672	 0.078736
H	-1.4425088614	-1.6451156174	 0.0595696241	 0.129153
H	-1.4541130298	-3.1295963645	 1.0148993779	 0.133199
H	-2.1192748461	-1.6295294696	 1.6903205771	 0.105685
H	 2.1698674791	-2.3237328346	 1.4969655973	 0.071208
H	 0.4935592159	-2.259371212	-1.076078422	 0.100582
H	 3.4523725553	-2.9197820395	-0.6298402435	 0.098077
H	 2.5868236977	-3.0410711006	-2.1743453018	 0.11839
H	 2.8128531671	-1.4552748854	-1.3982102469	 0.128829
H	 1.6114903801	-4.5015892182	 0.188855548	 0.271882
47.5788	103.3235	106.8456	135.6864	174.8467	201.1519	249.305	254.8087	270.29	281.8663	329.721	372.4464	439.4895	525.2685	612.3654	622.2226	781.8401	790.3049	837.7307	907.7528	974.6923	981.2235	1010.3968	1065.4502	1081.0916	1101.0844	1106.8217	1129.5179	1146.5705	1170.825	1181.9653	1185.0179	1224.235	1262.799	1276.463	1331.0482	1370.4284	1393.7913	1398.0505	1412.7878	1418.8036	1445.6882	1484.9727	1485.4632	1492.0975	1495.774	1496.3992	1504.3537	1511.6527	2985.6161	3022.2698	3039.2272	3041.6699	3074.2466	3085.4065	3097.4329	3102.7361	3111.745	3118.578	3120.5003	3120.9665	3136.867	3798.0961
COC1C(C)C1C(C)O	CO[C@H]1[C@@H](C)[C@H]1[C@@H](C)O	
InChI=1S/C7H14O2/c1-4-6(5(2)8)7(4)9-3/h4-8H,1-3H3	InChI=1S/C7H14O2/c1-4-6(5(2)8)7(4)9-3/h4-8H,1-3H3/t4-,5+,6-,7-/m0/s1
