16
gdb 99249	4.02064	0.83309	0.82486	2.6592	62.35	-0.2565	0.0153	0.2719	1427.3733	0.121584	-512.207695	-512.197595	-512.196651	-512.244565	34.236	
N	-0.1162577133	 0.9523325149	 0.4286689785	-0.524205
C	-0.1825088913	-0.3636110224	 0.0673375906	 0.402121
O	 0.6715238289	-1.1789860091	 0.3342122561	-0.34391
C	-1.4160446102	-0.7086173733	-0.7829730253	-0.185412
O	-1.5259729032	-2.1107882333	-0.9559730267	-0.228868
C	-1.9573157426	-2.7887949916	 0.1386679777	 0.455155
O	-2.3677128579	-2.2670564882	 1.1367026856	-0.341409
C	-1.824124429	-4.2765896048	-0.1206268824	-0.195096
O	-2.4861604473	-4.9781858347	 0.8998769101	-0.395185
H	 0.6168051737	 1.2114037719	 1.0704025446	 0.266943
H	-0.9364774689	 1.5353659504	 0.4093702334	 0.261477
H	-2.3227983515	-0.3048315287	-0.3219274069	 0.136261
H	-1.2990583301	-0.2885581535	-1.7853060269	 0.142393
H	-2.2278765222	-4.4865360822	-1.1229376162	 0.117352
H	-0.7436905834	-4.4868867135	-0.15868456	 0.136835
H	-2.2680004018	-5.9096824418	 0.8068207678	 0.295548
30.7632	57.1574	77.9746	85.7571	187.8489	215.3173	293.5691	332.1432	342.2094	369.3347	470.3064	506.7819	578.0481	609.2567	669.7193	699.3981	829.5794	878.1799	1030.2635	1039.5014	1071.8029	1101.2441	1141.0686	1195.6688	1237.3647	1264.9767	1295.3166	1314.8381	1413.311	1451.744	1466.0149	1496.4831	1623.7304	1821.4257	1856.3342	2983.7601	3012.8722	3056.8146	3114.5149	3588.7009	3715.7835	3842.2248
NC(=O)COC(=O)CO	NC(=O)COC(=O)CO	
InChI=1S/C4H7NO4/c5-3(7)2-9-4(8)1-6/h6H,1-2H2,(H2,5,7)	InChI=1S/C4H7NO4/c5-3(7)2-9-4(8)1-6/h6H,1-2H2,(H2,5,7)
