20
gdb 119838	2.90737	1.09125	0.96042	1.6331	76.29	-0.245	0.0167	0.2617	1333.0657	0.170271	-440.295542	-440.285904	-440.284959	-440.332032	33.718	
C	-0.6089281955	 0.4659006662	-0.4860011087	-0.234608
O	 0.5284523115	 0.3332651183	-1.3130317448	-0.220575
C	 1.4987219264	-0.5475925911	-0.7949845544	-0.16115
C	 1.0715680137	-1.9924663817	-0.8135474746	 0.37439
N	 1.0848301108	-2.7763418409	 0.1870744855	-0.305679
C	 0.6406264182	-4.0858989605	-0.3122690249	-0.200284
C	 0.2743397825	-3.8500419015	-1.804333913	 0.101527
C	-1.1994497478	-4.0159759044	-2.1383112733	-0.396314
O	 0.6671321206	-2.4657446178	-2.0196633652	-0.254075
H	-1.1518234905	-0.4830620077	-0.3696958779	 0.112926
H	-0.3394167573	 0.832372843	 0.516341271	 0.109604
H	-1.2674390733	 1.1927491268	-0.9667464813	 0.1297
H	 2.3808179008	-0.4321587978	-1.4340433165	 0.126742
H	 1.774185994	-0.2984166228	 0.2387270519	 0.117686
H	 1.4415262271	-4.8224803269	-0.1857978949	 0.115553
H	-0.2183447744	-4.4385444278	 0.2702193228	 0.112112
H	 0.886193808	-4.4560788572	-2.4797164902	 0.092257
H	-1.8173415554	-3.4130723985	-1.4648981899	 0.126793
H	-1.4049929702	-3.7076625912	-3.1668878372	 0.13202
H	-1.4931992992	-5.0649337762	-2.0262152943	 0.121375
18.9863	55.3585	88.6931	145.1929	211.5375	229.4118	272.5173	326.7266	392.97	427.4189	460.1473	616.8837	718.2773	762.8533	837.4903	918.2668	930.5107	948.5991	958.9291	986.8003	1054.8178	1074.9932	1119.2784	1135.6623	1142.0875	1181.3885	1221.4705	1228.7335	1257.9185	1310.3298	1327.9491	1356.4565	1386.8041	1401.8658	1409.4803	1470.2176	1483.6191	1484.564	1487.7157	1494.1908	1503.35	1505.9807	1731.3522	2982.9476	3019.1544	3033.4938	3034.1815	3037.6882	3051.8	3070.9392	3081.0979	3109.5709	3120.5294	3121.1833
COCC1=NCC(C)O1	COCC1=NC[C@@H](C)O1	
InChI=1S/C6H11NO2/c1-5-3-7-6(9-5)4-8-2/h5H,3-4H2,1-2H3	InChI=1S/C6H11NO2/c1-5-3-7-6(9-5)4-8-2/h5H,3-4H2,1-2H3/t5-/m1/s1
