17
gdb 25556	3.76612	0.939	0.89222	1.9389	77.5	-0.2131	0.019	0.2321	1343.431	0.137519	-418.03745	-418.029019	-418.028075	-418.072116	30.335	
N	 0.2441860994	 0.1186628288	 1.4359254712	-0.443506
C	-0.3418520425	-0.4314157971	 0.4633150737	 0.13303
O	-0.0679370586	-1.7170526457	 0.1555577956	-0.191275
C	-0.8658660564	-2.2993081771	-0.8926809959	-0.222322
C	-2.2590506077	-2.5929234009	-0.4555119519	 0.292545
C	-3.4746411592	-2.3504579479	-1.0592894267	-0.230145
C	-4.4882267319	-2.8838340394	-0.2164338753	-0.138327
C	-3.8617377264	-3.427339195	 0.8813640572	-0.088617
N	-2.5117832102	-3.2576658296	 0.7213952028	-0.271911
H	-0.0557615448	 1.0881096246	 1.5169439711	 0.229334
H	-1.0809658711	 0.0318603012	-0.2034483923	 0.094322
H	-0.8864741648	-1.6478186031	-1.7745791711	 0.122665
H	-0.3128972341	-3.2053990368	-1.1607745857	 0.129614
H	-3.6146881095	-1.8551724191	-2.0085714103	 0.093387
H	-5.552401549	-2.8656594998	-0.3930752114	 0.097602
H	-4.2604784889	-3.9074768733	 1.760528509	 0.120877
H	-1.8059790542	-3.4891300501	 1.4000803199	 0.272727
41.29	59.2448	91.895	178.9034	250.3732	354.337	404.3512	521.6287	627.7236	635.0114	646.6558	728.2817	748.1016	801.8226	822.4041	856.4249	897.0374	949.3796	973.3576	1017.6176	1041.8191	1055.8974	1103.095	1117.7529	1147.7348	1234.8179	1266.6543	1289.5016	1323.6965	1391.171	1424.0445	1444.6046	1461.2362	1495.4743	1501.8514	1614.0964	1746.076	3030.1894	3038.07	3077.7176	3239.4037	3253.2206	3272.2137	3516.5564	3671.3467
N=COCC1=CC=CN1	[NH][CH]OCc1ccc[nH]1	
InChI=1S/C6H8N2O/c7-5-9-4-6-2-1-3-8-6/h1-3,5,7-8H,4H2	InChI=1S/C6H8N2O/c7-5-9-4-6-2-1-3-8-6/h1-3,5,7-8H,4H2
