23
gdb 122544	4.56241	0.53026	0.50436	2.5914	83.54	-0.2579	0.0781	0.3361	2191.017	0.204028	-425.399479	-425.388438	-425.387494	-425.437042	38.943	
O	-0.1521881585	 1.4722126147	-0.4427394741	-0.421451
C	-0.0099794966	 0.1219805124	-0.0269125671	-0.076268
C	-1.3774345293	-0.5425811491	-0.1071024709	-0.156979
C	-1.3567483973	-2.0107338027	 0.3369872344	-0.21882
C	-2.7302440465	-2.6503239116	 0.2611315124	-0.005329
C	-3.2276323719	-3.2954024897	-1.0101746049	-0.282026
C	-2.9638264308	-4.1441099901	 0.2099272643	-0.003766
C	-1.8432267983	-5.1497737854	 0.2218539307	-0.097469
O	-2.3236790152	-6.3448091813	-0.3839752747	-0.420339
H	 0.7099372358	 1.8949018719	-0.3925580318	 0.284295
H	 0.7050795932	-0.4193009072	-0.6688679757	 0.081356
H	 0.3730057166	 0.0614632523	 1.0056281618	 0.081422
H	-2.0768277536	 0.0287142007	 0.5156810888	 0.103738
H	-1.7456265288	-0.46864426	-1.1370056509	 0.109701
H	-0.6471225685	-2.5664702559	-0.287798921	 0.093506
H	-0.9748562321	-2.0743299011	 1.3657999152	 0.093368
H	-3.4814877932	-2.1035432877	 0.8274436532	 0.081835
H	-4.2526805873	-3.1334203308	-1.3240949081	 0.109968
H	-2.5220718482	-3.3840384033	-1.8313529209	 0.10883
H	-3.8432424591	-4.4982010032	 0.741339873	 0.087805
H	-0.9694514484	-4.7591464478	-0.3213702243	 0.08022
H	-1.5224186229	-5.3398149442	 1.2594238308	 0.08337
H	-1.6382757691	-7.014700781	-0.30222238	 0.283032
42.6447	72.3666	80.8922	94.0569	134.7676	176.7139	245.0837	264.1196	272.8143	283.1912	373.4079	435.9208	450.0765	580.7866	755.2227	790.1115	830.2255	856.4635	890.795	917.2834	966.5106	1018.7045	1034.4537	1056.8018	1061.5599	1071.0162	1076.0018	1101.3592	1141.9526	1172.897	1189.5996	1224.8029	1231.555	1242.0522	1256.6896	1280.7129	1299.3795	1308.0439	1317.6628	1367.7998	1388.7795	1426.7854	1463.2558	1469.1293	1484.598	1497.4224	1500.5816	1519.3611	1528.6907	2953.6892	2961.4888	2978.0162	2994.4545	3006.9337	3032.799	3048.8748	3079.918	3122.5624	3126.2243	3143.6137	3211.1468	3823.4373	3829.7957
OCCCC1CC1CO	OCCC[C@H]1C[C@H]1CO	
InChI=1S/C7H14O2/c8-3-1-2-6-4-7(6)5-9/h6-9H,1-5H2	InChI=1S/C7H14O2/c8-3-1-2-6-4-7(6)5-9/h6-9H,1-5H2/t6-,7-/m0/s1
