18
gdb 42339	3.40182	1.21384	1.00291	1.8327	73.47	-0.2381	-0.0058	0.2322	1208.3174	0.14766	-439.056126	-439.047536	-439.046592	-439.09061	30.488	
O	-0.7280204234	 0.6018840634	 1.6268505059	-0.339669
C	-0.4959562984	 1.6227583076	 1.0160378276	 0.363291
C	 0.8623465532	 2.3269075198	 1.0424888438	 0.049079
C	 1.9630761737	 1.6256321764	 1.8529392073	-0.289777
C	 2.6374634537	 1.3970762387	 0.4857824609	-0.063187
O	 1.5609777593	 2.0758208531	-0.209940268	-0.30056
N	-1.4488489875	 2.2861713424	 0.2598588363	-0.084176
C	-1.3467138374	 2.5912421659	-1.1593717307	-0.229061
C	-2.3655034908	 1.6206358705	-0.6339204086	-0.223167
H	 0.7299970186	 3.402093643	 1.212129738	 0.093386
H	 2.5088561374	 2.2644235502	 2.547319582	 0.111007
H	 1.6111375602	 0.7282207256	 2.3602487631	 0.142298
H	 3.594082861	 1.9089080129	 0.3312271649	 0.107059
H	 2.7319304867	 0.353663507	 0.1652965813	 0.11307
H	-1.6567470929	 3.591668643	-1.4485874093	 0.126113
H	-0.4867401873	 2.1962612751	-1.6893398686	 0.156924
H	-2.201616249	 0.5601164617	-0.8041413027	 0.139251
H	-3.4058773074	 1.9230769738	-0.5584920333	 0.128118
50.0289	74.5233	98.8912	178.956	198.7062	281.986	309.5903	423.2402	575.4918	690.6337	773.6843	805.5217	815.8564	829.0046	904.4816	943.1072	972.2479	981.9268	1017.8856	1042.6544	1049.8785	1098.9453	1128.2032	1136.0746	1149.208	1163.4719	1176.6223	1181.271	1221.4602	1262.9492	1273.8671	1345.1281	1358.8697	1420.1428	1486.2822	1497.9865	1524.4151	1527.5304	1785.9344	3027.3598	3035.9806	3072.4554	3097.5121	3116.7843	3122.0606	3160.1677	3203.5411	3222.6862
O=C(C1CCO1)N1CC1	O=C([C@H]1CCO1)N1CC1	
InChI=1S/C6H9NO2/c8-6(7-2-3-7)5-1-4-9-5/h5H,1-4H2	InChI=1S/C6H9NO2/c8-6(7-2-3-7)5-1-4-9-5/h5H,1-4H2/t5-/m1/s1
