14
gdb 44129	2.58967	1.67768	1.34223	5.7546	65.66	-0.2547	0.0146	0.2693	949.3769	0.103304	-432.908704	-432.901421	-432.900477	-432.94066	27.579	
O	 0.0010177128	-0.0345525123	-0.0994440587	-0.375712
C	-0.0139259802	 1.161308806	 0.0329476099	 0.426933
N	-1.1390954359	 1.9845784974	 0.1501703797	-0.334081
C	-0.7937139815	 3.3600597307	 0.0606812097	-0.022721
C	 0.7045046251	 3.3810275547	 0.0404486572	-0.022718
N	 1.0905123967	 2.0157783533	 0.1200355891	-0.334074
C	-0.0686336766	 3.8812652762	-1.1996486301	-0.253151
C	-0.0746962717	 3.1374006237	-2.4193415791	 0.305009
N	-0.0793378837	 2.5247157814	-3.4011704922	-0.332071
H	-2.0195027971	 1.6212268704	-0.1778992308	 0.270681
H	-1.3852328037	 4.0673430042	 0.6295096731	 0.130808
H	 1.2911529783	 4.1047837061	 0.5933775803	 0.130809
H	 1.9715994996	 1.6770683791	-0.2317151008	 0.270683
H	-0.0852964422	 4.960162569	-1.3152054172	 0.139606
93.1402	130.342	191.7731	357.3998	411.1818	426.8174	476.8529	492.189	633.2902	649.7099	696.8797	747.1976	765.5154	772.1755	804.6413	940.3362	961.6986	999.0875	1007.7469	1072.0824	1107.3961	1158.1778	1211.5478	1236.4728	1360.5808	1372.3097	1377.7121	1392.5532	1431.3178	1875.3098	2350.8206	3168.3369	3179.3438	3188.1573	3651.6322	3653.3722
O=C1NC2C(N1)C2C#N	O=C1N[C@H]2[C@@H](N1)[C@H]2C#N	
InChI=1S/C5H5N3O/c6-1-2-3-4(2)8-5(9)7-3/h2-4H,(H2,7,8,9)	InChI=1S/C5H5N3O/c6-1-2-3-4(2)8-5(9)7-3/h2-4H,(H2,7,8,9)/t2-,3+,4-
