17
gdb 62798	2.30204	1.84054	1.58046	1.4171	67.48	-0.2326	-0.0275	0.2051	937.7523	0.135072	-458.950819	-458.942814	-458.94187	-458.982933	31.061	
C	-0.0368846499	 1.5514372674	-0.018014101	-0.461291
C	 0.0096226314	 0.029910468	-0.0387528043	 0.30255
O	-1.2840080651	-0.5475675345	-0.1294951106	-0.48479
C	 0.9472684006	-0.5656003233	-1.1140702899	 0.047891
C	 1.15302142	-2.0351332699	-0.6917666567	-0.249969
C	 1.920871264	-1.299398746	 0.4364628806	-0.053779
O	 2.2574022952	-0.2459758504	-0.5311842893	-0.299564
C	 0.78010282	-0.5889149975	 1.1678961596	 0.409045
O	 0.4872366445	-0.5331028253	 2.330650285	-0.344901
H	 0.9694698047	 1.9712313365	-0.0874450997	 0.141202
H	-0.6417161742	 1.9154994626	-0.8540079944	 0.124538
H	-0.4889732471	 1.9005105969	 0.9166708965	 0.126477
H	-1.7277537442	-0.3886884438	 0.7125778303	 0.291339
H	 0.8235947925	-0.2433633836	-2.1471587017	 0.093539
H	 0.2766767742	-2.6350330712	-0.4442068397	 0.129868
H	 1.8403143778	-2.5605615713	-1.3555022816	 0.123419
H	 2.7573345056	-1.7090418446	 0.9983581367	 0.104425
113.7945	199.773	227.2916	245.481	255.6629	329.5062	350.4661	470.9793	495.4735	528.2097	612.5617	684.0031	759.3412	818.3565	858.0238	878.7824	888.3768	922.5385	963.5751	1005.0246	1012.2004	1049.8455	1119.1193	1146.5565	1151.2067	1197.1873	1198.531	1229.2082	1261.363	1284.8708	1320.1562	1379.0102	1395.2755	1478.0826	1488.4397	1497.03	1877.0731	3037.1954	3087.7691	3106.2905	3131.1742	3132.5469	3155.512	3160.1755	3786.7157
CC1(O)C2CC(O2)C1=O	C[C@@]1(O)[C@@H]2C[C@@H](O2)C1=O	
InChI=1S/C6H8O3/c1-6(8)4-2-3(9-4)5(6)7/h3-4,8H,2H2,1H3	InChI=1S/C6H8O3/c1-6(8)4-2-3(9-4)5(6)7/h3-4,8H,2H2,1H3/t3-,4+,6-/m1/s1
