23
gdb 94388	2.79287	1.29621	1.18283	0.2139	89.9	-0.2333	0.0307	0.264	1201.8542	0.206993	-351.163399	-351.154822	-351.153877	-351.196369	34.293	
C	-0.5428813913	 1.2927437464	-0.3543012968	-0.421197
C	 0.2157598024	-0.0211480597	-0.2446184788	-0.002277
C	 1.7340330414	-0.0587779844	-0.5679551382	-0.234707
C	 1.9069790392	-1.1068394716	 0.5598672568	-0.263647
C	 0.5310079812	-0.6604783482	 1.1486943079	 0.358934
C	 0.7027358392	 0.3092447723	 2.3502215554	-0.319901
C	 0.3981995037	-0.5656756825	 3.5437351587	-0.062589
C	-0.2041817636	-1.6983261751	 3.1858270716	-0.060079
C	-0.3925291285	-1.7750279657	 1.6900905431	-0.341122
H	-0.0407695805	 2.0978888862	 0.1925572567	 0.113981
H	-0.622523886	 1.607018988	-1.4011955925	 0.111544
H	-1.5617866432	 1.2057304013	 0.0408585037	 0.112517
H	-0.2940554582	-0.7801217183	-0.8519276418	 0.066259
H	 2.0331026973	-0.3420511904	-1.5802695059	 0.090798
H	 2.2175384241	 0.8917628981	-0.3190972453	 0.096358
H	 1.8650965829	-2.1293291811	 0.1716709508	 0.092318
H	 2.781205046	-1.018414606	 1.2105641849	 0.09414
H	 1.7016623082	 0.7601388619	 2.3860908584	 0.096697
H	-0.0086336651	 1.1467601075	 2.3088918829	 0.102946
H	 0.6119095917	-0.2604568461	 4.5623837786	 0.086714
H	-0.5590314017	-2.4649349522	 3.8660505593	 0.08746
H	-1.4440783358	-1.5861659578	 1.4218922911	 0.099382
H	-0.1425099532	-2.7556524329	 1.2667671195	 0.095471
87.9886	114.6765	203.6365	221.3711	265.2172	343.5989	380.2967	410.1484	457.6998	507.464	628.3955	692.526	764.0836	774.1929	795.2432	888.2311	897.9236	905.3385	938.5848	947.9635	957.3516	974.3203	978.2287	985.09	1050.7582	1069.8261	1106.8841	1127.595	1146.5635	1154.6328	1178.359	1204.6404	1234.1323	1243.2106	1264.3412	1275.2994	1289.4112	1303.5955	1338.7275	1362.6959	1379.4654	1410.1696	1478.1477	1478.9931	1488.5557	1497.3726	1499.9885	1503.5938	1686.0978	2983.0808	3003.3795	3016.7648	3023.8765	3039.2224	3044.5707	3045.5697	3049.6162	3085.6567	3091.1768	3095.0868	3106.895	3177.9336	3203.8013
CC1CCC11CC=CC1	C[C@H]1CC[C@]21CC=CC2	
InChI=1S/C9H14/c1-8-4-7-9(8)5-2-3-6-9/h2-3,8H,4-7H2,1H3	InChI=1S/C9H14/c1-8-4-7-9(8)5-2-3-6-9/h2-3,8H,4-7H2,1H3/t8-/m0/s1
