15
gdb 43969	2.97324	1.83957	1.59735	2.0327	69.41	-0.2311	-0.0165	0.2146	864.7563	0.114085	-416.78025	-416.773465	-416.772521	-416.811254	27.132	
O	-0.0078253553	 0.0993558271	-0.422338332	-0.317668
C	 0.0086203019	 1.2250079236	-0.0055752238	 0.356746
C	-1.1387014361	 2.262760878	 0.2038473318	-0.391967
C	-0.05889686	 3.3309267004	-0.0435435741	 0.265074
C	 0.9432643909	 3.3420039252	 1.0494129889	-0.344697
C	 1.113166071	 2.2432856207	 0.0189897041	 0.07299
N	 1.9113354704	 2.5990974986	-1.1227234645	-0.338466
C	 1.2153427892	 3.6044318801	-1.7947893152	 0.039155
N	 0.1374818637	 4.0628417456	-1.2557395862	-0.288917
H	-1.8703329518	 2.1634089238	-0.6006620906	 0.147097
H	-1.6502863705	 2.3048964648	 1.1688587506	 0.122346
H	 1.71884006	 4.0978559668	 1.0014978966	 0.143272
H	 0.624702869	 3.076399704	 2.0520886437	 0.130883
H	 2.4255260292	 1.9005426601	-1.6368454126	 0.265886
H	 1.6286443485	 3.9982962112	-2.7187059065	 0.138267
95.1889	258.4408	321.178	386.3308	399.0469	477.0467	494.6995	562.4621	624.7826	633.2945	662.5287	752.7033	798.0029	876.1	926.0185	933.9711	952.1723	970.8585	987.6768	1072.5846	1078.0511	1102.056	1152.7017	1204.0931	1249.9465	1273.8121	1325.9682	1342.3642	1399.85	1450.7553	1476.3134	1607.3433	1847.4772	3065.1471	3132.2912	3134.1634	3192.6546	3226.9378	3630.7024
O=C1CC23CC12NC=N3	O=C1C[C@@]23C[C@@]12NC=N3	
InChI=1S/C6H6N2O/c9-4-1-5-2-6(4,5)8-3-7-5/h3H,1-2H2,(H,7,8)	InChI=1S/C6H6N2O/c9-4-1-5-2-6(4,5)8-3-7-5/h3H,1-2H2,(H,7,8)/t5-,6-/m1/s1
