15
gdb 25854	4.199	1.07877	0.86288	4.9137	72.59	-0.2147	-0.0509	0.1638	1260.9751	0.112963	-454.034991	-454.026536	-454.025592	-454.06932	30.286	
C	-0.0196976334	 1.5233986842	 0.0943371795	-0.497252
C	-0.0221448547	 0.006838335	 0.035076614	 0.306781
O	-0.0394883769	-0.6849427662	 1.0397010348	-0.34291
C	-0.0027573469	-0.6263831394	-1.2789311197	 0.246766
C	 0.0183713364	-0.1237809095	-2.5448119783	-0.168142
N	 0.0296776606	-1.1888600066	-3.4120863095	-0.33391
C	 0.0159672715	-2.4162417846	-2.7200134744	 0.463851
O	 0.02098027	-3.5283899551	-3.1976139925	-0.416622
N	-0.0039151206	-2.0149278241	-1.399176536	-0.406355
H	 0.872292155	 1.9302763935	-0.3934740203	 0.140577
H	-0.8946017076	 1.9341078964	-0.4204670017	 0.140603
H	-0.035004883	 1.834673024	 1.1389936063	 0.149775
H	 0.0260478518	 0.8983610283	-2.8836177577	 0.155778
H	 0.0455242757	-1.1505920632	-4.4167217315	 0.277196
H	-0.0178965878	-2.6385153427	-0.609703943	 0.283864
28.2047	105.8545	135.4902	157.2261	274.2883	340.2204	459.9445	475.9688	539.9807	547.4644	577.134	613.5987	668.3032	750.4639	750.7746	777.1545	932.9218	964.6719	995.0784	1041.3923	1093.7121	1131.2986	1185.1634	1305.2397	1347.5832	1378.7084	1415.9903	1447.1505	1470.5015	1476.2887	1637.8895	1747.7074	1859.7927	3042.0513	3104.8725	3157.4738	3282.2242	3681.3302	3684.0771
CC(=O)C1=CNC(=O)N1	CC(=O)c1c[nH]c(=O)[nH]1	
InChI=1S/C5H6N2O2/c1-3(8)4-2-6-5(9)7-4/h2H,1H3,(H2,6,7,9)	InChI=1S/C5H6N2O2/c1-3(8)4-2-6-5(9)7-4/h2H,1H3,(H2,6,7,9)
