17
gdb 94247	2.03275	1.62942	1.17679	4.7449	73.21	-0.26	-0.0528	0.2072	1104.6482	0.134632	-418.001165	-417.991969	-417.991025	-418.035787	32.601	
C	-0.2436607901	 1.4945523543	 0.1615447054	-0.422411
C	-0.00176501	-0.0040745557	 0.0436345425	-0.021813
C	 1.0693527478	-0.4388619767	-0.9927075049	-0.172161
N	 2.0360638376	-0.6416981611	 0.1113911926	-0.341602
C	 0.9682551922	-0.6492964114	 1.1299027828	 0.043875
C	 1.2775887644	 0.2299359466	 2.3468717001	 0.122112
O	 0.6664393414	 0.1975687279	 3.37801663	-0.229977
C	 0.5136085329	-1.9793703768	 1.541250551	 0.257887
N	 0.191245486	-3.0544208506	 1.8189891863	-0.333635
H	 0.6952704284	 2.0557501172	 0.1955568703	 0.13387
H	-0.8083496099	 1.8432775821	-0.7089438123	 0.130313
H	-0.8244981399	 1.7374687019	 1.0563523181	 0.143787
H	-0.9483632728	-0.5399181903	-0.0268624443	 0.113816
H	 0.7917895674	-1.3532571879	-1.5301054692	 0.117678
H	 1.383153606	 0.3203925229	-1.7161936875	 0.114314
H	 2.6101931567	-1.4764221763	 0.0688452936	 0.240447
H	 2.1186227418	 0.929520174	 2.1555513955	 0.103499
45.9632	82.6603	137.1963	180.6622	223.9502	258.1082	280.9562	335.1792	404.4842	457.8002	521.6996	561.5035	691.6778	733.6273	800.3346	864.7451	918.6665	953.2444	1016.5433	1041.5788	1065.7712	1090.3546	1119.2511	1139.2053	1191.7484	1209.7137	1253.8223	1321.4918	1364.7504	1379.2688	1394.5666	1414.2661	1495.2718	1499.6126	1523.6545	1838.4238	2347.3505	2916.7544	3027.7344	3038.6832	3077.6542	3101.6219	3111.1879	3122.5112	3541.5101
CC1CNC1(C=O)C#N	C[C@H]1CN[C@]1(C=O)C#N	
InChI=1S/C6H8N2O/c1-5-2-8-6(5,3-7)4-9/h4-5,8H,2H2,1H3	InChI=1S/C6H8N2O/c1-5-2-8-6(5,3-7)4-9/h4-5,8H,2H2,1H3/t5-,6-/m0/s1
