15
gdb 52008	1.95267	0.7359	0.65115	6.5942	79.05	-0.2612	-0.0749	0.1864	1761.2873	0.108617	-412.991843	-412.980438	-412.979494	-413.032839	36.152	
N	-0.1409671863	 0.8702578461	-0.9693113887	-0.480582
H	 0.6604472928	 1.0901201768	-1.5365464412	 0.266417
H	-0.5725372151	-0.0242230188	-1.140296272	 0.256078
C	-0.8896508632	 1.8896112469	-0.4516519636	 0.143094
N	-2.0496901214	 1.84749612	 0.0786075771	-0.467354
C	-2.872009851	 4.402017013	 0.9567342852	-0.272206
C	-2.0404356204	 5.4101032165	 0.6372215419	 0.049878
C	-2.1741902098	 6.1325959252	-0.593761161	 0.239356
N	-2.2804339043	 6.7128509089	-1.5891148317	-0.320261
C	-0.9662935552	 5.8016429243	 1.502187482	 0.239093
N	-0.0968027116	 6.1147310644	 2.1984181814	-0.320103
H	-0.3725560764	 2.851824317	-0.4842943883	 0.122482
H	-2.4465682429	 0.9051313048	 0.0625960606	 0.206134
H	-3.6765076493	 4.1123198047	 0.296346075	 0.168561
H	-2.7612974358	 3.8597817203	 1.8846982332	 0.169413
16.2898	22.4431	49.8741	55.501	83.7469	127.178	149.2773	260.8905	265.4758	305.2847	408.0804	507.4197	511.3277	549.116	611.3842	671.8941	747.0822	753.3767	830.0905	952.7979	981.9575	1053.8323	1086.3548	1135.9358	1273.7529	1327.688	1428.1172	1432.0327	1631.9242	1638.9134	1734.6736	2345.4456	2355.2167	3113.5202	3206.5711	3306.7962	3439.3799	3592.7886	3713.8263
[NH2+]=CNC[C-](C#N)C#N	NC=N.C=C(C#N)C#N	
InChI=1S/C5H5N4/c6-1-5(2-7)3-9-4-8/h4H,3H2,(H2,8,9)/q-1/p+1	InChI=1S/C4H2N2.CH4N2/c1-4(2-5)3-6;2-1-3/h1H2;1H,(H3,2,3)
