16
gdb 28782	3.21005	1.71104	1.12383	0.5329	78.76	-0.1785	0.0057	0.1843	1025.9042	0.126252	-400.787111	-400.779823	-400.778879	-400.818613	28.692	
O	 0.0887585874	 1.3500655075	 0.2268146109	-0.441388
C	 0.0692066797	 0.0076118827	 0.0142706706	 0.329462
C	 0.0637256804	-0.7794001078	-1.1159980905	-0.294893
C	 0.0397367133	-2.151840523	-0.6817489563	-0.310944
C	 0.0319180237	-2.1468462053	 0.6858926244	 0.3465
C	 0.0109636662	-3.0046513351	 1.9230928303	-0.416514
C	 0.0204105145	-1.9557259546	 3.0282625951	-0.141975
C	 0.0426806081	-0.7267107628	 2.4988666086	-0.014293
N	 0.0501232758	-0.8163001637	 1.1000702414	-0.049299
H	 0.1008241806	 1.7897230915	-0.6282540845	 0.306916
H	 0.0753290759	-0.4239150878	-2.1353483232	 0.085868
H	 0.0300193166	-3.0176930926	-1.3259360196	 0.093831
H	-0.8774683334	-3.6474677448	 1.9862194396	 0.129444
H	 0.8782493872	-3.6746224503	 1.99713887	 0.129429
H	 0.0104185379	-2.1852613169	 4.083222592	 0.107466
H	 0.054771786	 0.241162023	 2.9767145112	 0.140388
147.1859	185.5249	191.6575	275.6693	328.3474	446.5373	535.786	617.8541	626.7002	661.3325	689.8764	697.6736	729.1875	769.9349	778.1426	885.7414	911.3118	937.4983	953.8633	1015.0273	1038.6608	1119.0172	1142.0281	1168.5064	1230.4259	1247.6261	1281.819	1305.8837	1341.058	1404.0933	1464.2809	1546.2312	1576.0503	1612.6544	1661.8844	3012.7422	3030.9757	3236.3824	3242.5733	3252.3045	3266.7827	3851.2553
OC1=CC=C2CC=CN12	Oc1ccc2CC=Cn12	
InChI=1S/C7H7NO/c9-7-4-3-6-2-1-5-8(6)7/h1,3-5,9H,2H2	InChI=1S/C7H7NO/c9-7-4-3-6-2-1-5-8(6)7/h1,3-5,9H,2H2
