21
gdb 36508	3.86917	0.94176	0.80199	0.9151	90.73	-0.2377	0.0262	0.264	1458.4486	0.183278	-349.94454	-349.935693	-349.934749	-349.978202	34.329	
C	-0.0909861813	-1.2440374186	-0.0156086439	-0.443019
C	-0.0686115885	-0.0418192187	-0.0092986122	 0.299329
C	-0.0115842577	 1.4148541098	-0.0086898377	-0.370605
C	 1.431982274	 1.9830453287	 0.0234371416	-0.016799
C	 1.4145611625	 3.509218929	-0.1592073673	-0.207252
C	 2.7888356224	 4.1208490735	 0.1359266966	-0.218749
C	 3.210527527	 3.8461983971	 1.5870304289	-0.236582
C	 2.9215798795	 2.4248207093	 1.994730333	-0.068548
C	 2.1497887056	 1.5945748641	 1.2940687551	-0.042666
H	-0.1235136776	-2.3051578317	-0.0206363188	 0.192995
H	-0.5217868189	 1.7966673725	-0.9026246752	 0.125813
H	-0.5680088944	 1.8040401896	 0.8540839577	 0.129526
H	 1.9630124288	 1.532302696	-0.8284921143	 0.091577
H	 1.0888745268	 3.7600005977	-1.1754162895	 0.091018
H	 0.6719005678	 3.9426975746	 0.525357678	 0.095079
H	 3.5298238028	 3.6822597025	-0.5447241189	 0.100421
H	 2.7798208966	 5.1981800075	-0.0609726607	 0.091569
H	 4.2786802619	 4.0604013077	 1.7194812179	 0.101508
H	 2.6901310626	 4.5352412474	 2.2695904274	 0.105783
H	 3.3842369092	 2.0746477814	 2.9150516447	 0.083109
H	 2.0016130407	 0.5723837607	 1.6335548575	 0.096494
70.4418	97.6744	139.9756	268.0034	274.6284	319.1358	351.4255	389.9532	461.977	535.9124	548.2491	615.8409	635.6634	689.9186	740.2991	803.472	858.1299	871.1052	912.377	955.1143	970.9285	983.868	1015.1006	1067.7305	1070.6208	1080.8395	1105.6997	1156.332	1208.2627	1215.5102	1252.8849	1273.5846	1300.6151	1343.3439	1350.031	1371.4896	1379.0302	1379.7647	1423.6667	1469.3006	1475.6662	1490.262	1497.9268	1723.2987	2235.4944	2987.457	2994.2336	3009.4266	3017.1567	3022.5686	3040.0177	3049.9073	3061.0569	3071.8471	3141.3055	3166.956	3507.1785
C#CCC1CCCC=C1	C#CC[C@H]1CCCC=C1	
InChI=1S/C9H12/c1-2-6-9-7-4-3-5-8-9/h1,4,7,9H,3,5-6,8H2	InChI=1S/C9H12/c1-2-6-9-7-4-3-5-8-9/h1,4,7,9H,3,5-6,8H2/t9-/m1/s1
