17
gdb 35669	3.58531	1.01945	0.93122	2.7374	78.48	-0.2463	0.0209	0.2672	1269.8051	0.13693	-380.849849	-380.841174	-380.84023	-380.884051	31.779	
C	-0.1679018618	-1.1035749691	-0.6619094059	-0.424537
C	-0.0599234005	 0.0252763014	-0.2637705479	 0.291944
C	 0.0763397577	 1.3857879757	 0.2286406237	-0.178299
C	-0.4989361661	 1.6109136735	 1.6582396479	-0.167664
N	 0.4349245584	 2.549301269	 2.3121529309	-0.29677
C	 1.3985843657	 3.0558230938	 1.3343278714	-0.133898
C	 1.5389350379	 1.8745028039	 0.3586741308	-0.218649
C	 0.9385702861	 4.2795144911	 0.6389054569	 0.26078
N	 0.5443590308	 5.2408346569	 0.1305963358	-0.330342
H	-0.2675005027	-2.0987857409	-1.0187267998	 0.19863
H	-0.4404661442	 2.0637061439	-0.4613157522	 0.129196
H	-1.5219823739	 1.9987287703	 1.60480499	 0.115622
H	-0.5275389341	 0.667412066	 2.2131046879	 0.122978
H	-0.0341438213	 3.2889876117	 2.8175860739	 0.238593
H	 2.351738977	 3.2921611082	 1.8200458134	 0.127079
H	 2.1564259307	 1.104393033	 0.8270618719	 0.13161
H	 1.9823539201	 2.1534820515	-0.5975885087	 0.133728
41.3057	84.9987	142.9615	194.9132	216.9775	302.1741	444.7158	491.65	504.4883	529.1497	601.9929	633.2817	642.9612	665.5179	794.4628	827.4215	857.4385	931.0164	958.7293	994.8198	1046.1325	1081.7313	1086.2348	1131.5623	1191.3245	1220.3605	1248.7719	1299.1904	1318.3277	1343.141	1355.315	1385.8709	1444.4754	1484.862	1528.3543	2241.0513	2341.117	3031.7903	3035.0309	3048.6153	3072.9058	3082.871	3143.0361	3504.134	3577.9948
C#CC1CNC(C1)C#N	C#C[C@H]1CN[C@@H](C1)C#N	
InChI=1S/C7H8N2/c1-2-6-3-7(4-8)9-5-6/h1,6-7,9H,3,5H2	InChI=1S/C7H8N2/c1-2-6-3-7(4-8)9-5-6/h1,6-7,9H,3,5H2/t6-,7+/m1/s1
