17
gdb 116879	3.33639	0.59806	0.5293	2.6266	79.52	-0.2577	0.0106	0.2683	2016.4491	0.132101	-421.742363	-421.731601	-421.730657	-421.780653	36.855	
O	-0.0617462314	 1.4005974848	-0.0053747558	-0.414443
C	-0.1337773661	 0.0283126781	-0.3493709287	-0.062942
C	-1.188901377	-0.6025145395	 0.566701076	-0.328114
C	-1.3708775444	-2.0256208928	 0.3175956806	 0.023567
C	-1.5016683693	-3.2023902586	 0.0986630631	 0.119268
C	-1.69794904	-4.6317741363	-0.1786252371	-0.237543
O	-2.9704882599	-4.9045140007	-0.7599383856	-0.389624
C	-0.5963594726	-5.1628829189	-0.9979386155	 0.331823
C	 0.2822621454	-5.6051204078	-1.6875127797	-0.456879
H	 0.6035936881	 1.8174819379	-0.5601785421	 0.290445
H	-0.4288252758	-0.1154962988	-1.3994944277	 0.098735
H	 0.8294798428	-0.4820922647	-0.2023470215	 0.102047
H	-0.8912887403	-0.4335479648	 1.6086288613	 0.142303
H	-2.1363575122	-0.06825403	 0.4257176366	 0.142326
H	-1.7156131169	-5.1785488463	 0.7731095626	 0.148085
H	-3.0115725746	-4.4207997372	-1.5931486997	 0.288403
H	 1.0626169041	-5.9990266445	-2.2908332567	 0.202543
12.8222	54.7977	77.0618	133.5752	161.8718	203.663	237.925	278.1611	310.0203	345.1502	385.9244	439.5047	519.9182	586.2832	613.3851	639.0798	671.3386	792.1673	808.0136	937.1143	1002.2402	1037.8953	1082.4793	1086.9371	1158.4035	1221.1159	1238.7203	1258.6951	1303.6333	1310.8273	1331.5848	1413.2121	1455.4122	1474.5288	1527.9016	2237.1207	2366.733	2984.324	3015.5629	3028.5195	3032.611	3070.358	3503.0735	3800.6202	3835.3921	12.8157	54.7973	77.0601	133.5749	161.8713	203.6627	237.9209	278.1608	310.0199	345.15	385.9233	439.5046	519.9179	586.2832	613.3848	639.0791	671.3379	792.1673	808.0135	937.1143	1002.2402	1037.8951	1082.4788	1086.9372	1158.4035	1221.1162	1238.7204	1258.6952	1303.6336	1310.8273	1331.5851	1413.2122	1455.4124	1474.5294	1527.9017	2237.1207	2366.7328	2984.3239	3015.5628	3028.5195	3032.6111	3070.3579	3503.0733	3800.6201	3835.3913
OCCC#CC(O)C#C	OCCC#C[C@@H](O)C#C	
InChI=1S/C7H8O2/c1-2-7(9)5-3-4-6-8/h1,7-9H,4,6H2	InChI=1S/C7H8O2/c1-2-7(9)5-3-4-6-8/h1,7-9H,4,6H2/t7-/m0/s1
