19
gdb 10345	2.38844	1.66897	1.15777	3.7999	68.77	-0.2371	0.028	0.2651	1106.8975	0.162876	-402.22653	-402.216327	-402.215383	-402.262146	35.	
C	-0.431353488	 0.8584294998	 0.6423550816	-0.386792
C	-0.1668633817	-0.5067584184	 0.0042544873	-0.181778
C	 0.5367737389	-0.4028249346	-1.3571516345	 0.041038
O	 1.7747396164	 0.2175174096	-1.1418648323	-0.226194
C	 2.4882207724	 0.5393033653	-2.3189125176	-0.243709
C	 0.7007201924	-1.8119580191	-1.971360573	 0.364483
N	-0.4046028689	-2.2669125427	-2.6332813591	-0.520066
O	 1.7183064406	-2.4640467187	-1.8638675926	-0.355202
H	 0.5030443572	 1.4098870717	 0.7663917945	 0.1407
H	-1.1008971878	 1.4639688774	 0.0207586207	 0.106624
H	-0.8992140389	 0.7448696831	 1.6248637106	 0.112366
H	 0.4704246413	-1.1152165103	 0.6555580327	 0.125793
H	-1.1061164855	-1.0566273053	-0.1261662305	 0.090629
H	-0.0803569687	 0.2084489133	-2.043493084	 0.055724
H	 2.7852052219	-0.359831714	-2.8710233205	 0.132956
H	 1.8964295513	 1.192032955	-2.9804812253	 0.095787
H	 3.3856308216	 1.0783139174	-2.006766633	 0.127132
H	-1.2547984404	-1.7347410531	-2.6936367194	 0.258652
H	-0.4008934042	-3.2125955463	-2.9790389754	 0.261857
44.9187	93.9695	116.631	122.0997	179.5435	196.2906	203.6138	264.146	299.6617	333.3276	458.5854	489.2324	556.7083	649.8518	728.1061	765.533	852.7955	933.2446	964.5432	1046.3795	1083.2947	1107.8962	1140.1471	1172.1063	1181.1315	1237.1262	1263.131	1303.5691	1332.1757	1375.8701	1399.217	1407.2912	1476.8201	1482.0973	1486.5588	1495.0653	1509.0525	1512.242	1616.7011	1805.3856	2917.0483	2979.392	3036.1028	3038.7006	3064.9468	3078.8273	3102.214	3121.0725	3132.788	3600.6513	3736.4633
CCC(OC)C(N)=O	CC[C@@H](OC)C(=O)N	
InChI=1S/C5H11NO2/c1-3-4(8-2)5(6)7/h4H,3H2,1-2H3,(H2,6,7)	InChI=1S/C5H11NO2/c1-3-4(8-2)5(6)7/h4H,3H2,1-2H3,(H2,6,7)/t4-/m1/s1
