23
gdb 102462	1.93939	1.04684	0.80243	3.0212	82.7	-0.2605	-0.0229	0.2376	1564.8693	0.20285	-425.453817	-425.44257	-425.441625	-425.491219	39.809	
C	 0.0683204571	 1.3697131668	 0.341295957	-0.397102
C	 0.1194361079	-0.137973327	 0.0787179005	-0.180189
C	 0.643548094	-0.5202853585	-1.33111458	-0.07148
C	 2.1395559027	-0.2131408293	-1.5196066985	-0.173973
C	 2.6356413331	-0.44034333	-2.951159746	-0.397208
C	 0.3653475451	-2.0017522784	-1.5296786193	 0.365421
O	 1.0590540026	-2.8725708872	-1.0433364466	-0.34684
C	-0.8531232764	-2.406063675	-2.3461955513	-0.13877
O	-1.0402654171	-3.7877778593	-2.3420561359	-0.420696
H	 1.0605132038	 1.8283459448	 0.3045359164	 0.125951
H	-0.5634254186	 1.8789569679	-0.3948923144	 0.117251
H	-0.3491535177	 1.5710096443	 1.3326334125	 0.120482
H	 0.7494428525	-0.6352505573	 0.8252398547	 0.119535
H	-0.8888817163	-0.5512491502	 0.2082091789	 0.101825
H	 0.0578625331	 0.0400037234	-2.0740599218	 0.074603
H	 2.3288104183	 0.8260753678	-1.2325458262	 0.097678
H	 2.7048319006	-0.8457395178	-0.8268044876	 0.121094
H	 2.5184743704	-1.4858478015	-3.2543983706	 0.12807
H	 2.0875057388	 0.1820457077	-3.6676063767	 0.112651
H	 3.6969960618	-0.1905736762	-3.0407397476	 0.118955
H	-1.7366152098	-1.8797705993	-1.9481835432	 0.114564
H	-0.7040461189	-2.0158294749	-3.3692054672	 0.115014
H	-0.280202237	-4.1375272907	-1.8482450772	 0.293163
34.7937	73.0971	94.0438	110.628	174.3892	188.5308	204.8826	256.8743	260.0192	318.1638	352.4826	400.3274	443.6192	463.0278	563.5373	680.0407	765.3588	790.7993	860.9765	882.2893	913.5605	1001.368	1026.7759	1031.8311	1052.682	1065.7925	1118.7741	1123.2912	1149.6908	1189.6883	1241.6021	1273.3548	1291.9842	1308.8818	1335.0322	1358.1445	1369.7831	1395.8702	1413.2322	1417.7672	1450.979	1480.795	1487.5885	1488.7124	1499.3088	1500.8927	1505.9327	1508.4763	1787.3606	2953.3851	2983.3671	3006.537	3024.721	3032.2353	3036.6136	3047.7028	3065.9651	3081.4559	3103.0414	3103.8284	3108.739	3114.9841	3671.2686
CCC(CC)C(=O)CO	CCC(CC)C(=O)CO	
InChI=1S/C7H14O2/c1-3-6(4-2)7(9)5-8/h6,8H,3-5H2,1-2H3	InChI=1S/C7H14O2/c1-3-6(4-2)7(9)5-8/h6,8H,3-5H2,1-2H3
