14
gdb 29165	3.19511	1.4495	0.99718	1.0755	71.05	-0.1866	-0.0318	0.1548	1087.8885	0.102753	-470.081423	-470.073501	-470.072557	-470.113757	30.13	
N	 0.0019701077	 1.3108642581	 0.0462930409	-0.541375
C	-0.0472951848	-0.0353471597	 0.0154472268	 0.295811
N	-1.1768837324	-0.6939693493	 0.010261985	-0.427732
C	-1.1327309108	-2.0558822708	-0.0037922488	 0.382698
O	-2.331703241	-2.6909809685	-0.0049374399	-0.435199
C	 0.0248413669	-2.7625729527	-0.0163600019	-0.139974
N	 1.2119154942	-2.0387012416	-0.0171647144	-0.345486
C	 1.2929120437	-0.6765824122	-0.0039992865	 0.392318
O	 2.3425981148	-0.0380249009	-0.011651571	-0.423024
H	 0.9141499393	 1.7335580221	-0.0180208095	 0.281518
H	-0.8386272157	 1.8561703182	-0.0171604204	 0.265854
H	-2.9967722579	-1.9914376053	 0.0089822617	 0.295436
H	 0.0879875396	-3.8390453362	-0.0267778494	 0.132336
H	 2.0965588466	-2.5256735314	-0.0323113025	 0.266818
94.2483	150.3702	227.4255	309.6309	350.5326	368.2526	405.3857	449.193	496.8473	523.7827	595.3236	606.3962	658.5564	692.0593	719.9782	741.9801	807.1712	816.9752	978.5747	1085.9504	1153.886	1223.9033	1280.082	1360.5027	1401.5557	1426.4762	1477.4552	1562.5097	1655.6809	1698.2999	1761.416	3255.2363	3602.3921	3619.2198	3750.266	3795.8561
NC1=NC(O)=CNC1=O	Nc1nc(O)c[nH]c1=O	
InChI=1S/C4H5N3O2/c5-3-4(9)6-1-2(8)7-3/h1H,(H,6,9)(H3,5,7,8)	InChI=1S/C4H5N3O2/c5-3-4(9)6-1-2(8)7-3/h1H,(H,6,9)(H3,5,7,8)
