23
gdb 117811	2.44491	0.94719	0.84528	2.5339	81.88	-0.2504	-0.0269	0.2235	1514.5668	0.202243	-425.435703	-425.424258	-425.423314	-425.472744	40.691	
C	-0.0635507845	 1.5755303581	 0.2481992597	-0.411791
C	 0.1087389154	 0.0678020034	 0.0234590984	-0.189893
C	 0.8160700624	-0.3881984234	-1.2931214343	 0.138002
C	 2.2614548249	 0.1425624716	-1.3391036846	-0.438011
C	 0.7525462652	-1.9291417019	-1.3489961666	-0.216099
C	 1.5005608576	-2.5952074245	-2.5091883213	-0.08519
O	 1.3127880177	-4.0026527846	-2.5132452593	-0.417958
C	 0.0336020495	 0.2132573386	-2.4574305978	 0.160666
O	-0.8096894026	-0.3626012532	-3.0982753251	-0.268689
H	 0.8927491146	 2.1067142733	 0.2575333037	 0.12231
H	-0.6976011012	 2.038931939	-0.5140039656	 0.124918
H	-0.5413443125	 1.7521027371	 1.2166521611	 0.123062
H	 0.6840679165	-0.3559608609	 0.8559997614	 0.103784
H	-0.8767329832	-0.4116925442	 0.0550378254	 0.111578
H	 2.8366066119	-0.2481556977	-0.4934188727	 0.124607
H	 2.7755402206	-0.152049941	-2.2585100775	 0.12861
H	 2.2920029678	 1.2349871959	-1.2874852627	 0.121049
H	 1.1352284937	-2.3411165981	-0.408015477	 0.098327
H	-0.3031824024	-2.2167939773	-1.4198277306	 0.102334
H	 1.1928061854	-2.1503351837	-3.4664042464	 0.101238
H	 2.5809321436	-2.4505445802	-2.4108184384	 0.107086
H	 0.3798038251	-4.1690497018	-2.6824998343	 0.282936
H	 0.2834118144	 1.2755459056	-2.6844447753	 0.077127
63.5162	75.243	80.6719	102.5591	151.5035	209.9908	253.2756	276.6199	288.7469	309.9262	323.5885	342.3593	354.955	409.9452	515.1367	586.4752	764.6512	776.8272	812.7188	860.9981	922.2843	984.0026	996.1804	1018.4398	1028.1189	1074.1246	1085.3503	1089.275	1148.2739	1179.5628	1224.3019	1251.1646	1305.3118	1324.374	1355.7117	1368.9713	1401.2264	1414.1216	1417.2812	1424.0434	1432.6975	1467.5674	1481.8905	1495.728	1500.1756	1505.43	1512.5038	1515.5642	1820.3357	2860.8133	3004.7229	3022.4425	3032.4771	3039.2262	3042.7768	3061.2947	3066.083	3087.9502	3105.472	3107.7062	3110.857	3115.3635	3813.6918
CCC(C)(CCO)C=O	CC[C@@](C)(CCO)C=O	
InChI=1S/C7H14O2/c1-3-7(2,6-9)4-5-8/h6,8H,3-5H2,1-2H3	InChI=1S/C7H14O2/c1-3-7(2,6-9)4-5-8/h6,8H,3-5H2,1-2H3/t7-/m0/s1
