19
gdb 87048	2.39758	1.38173	1.00513	4.8996	80.43	-0.2653	0.0245	0.2897	1233.4006	0.158855	-382.047699	-382.038593	-382.037648	-382.081705	33.857	
C	-0.0546857097	 1.3535220472	-0.2279198494	-0.406846
C	 0.2162786461	-0.0963390777	 0.0812259944	-0.026967
N	 1.6160581886	-0.4974980468	 0.2508899132	-0.351389
C	 0.7087918612	-0.5887422218	 1.4130585219	 0.113095
C	 0.9879473328	 0.3858553159	 2.4532979256	 0.293741
N	 1.168511146	 1.150091451	 3.3018113176	-0.349711
C	 0.2366653823	-1.9112885208	 1.9635493547	-0.058452
C	 0.35320237	-3.1969236869	 1.1871285797	-0.299546
C	 1.2230348946	-2.9662983618	 2.3978149898	-0.258547
H	 0.6136013474	 2.0053023917	 0.3389086137	 0.151683
H	 0.1006069351	 1.5475618234	-1.2941739898	 0.126842
H	-1.0888052411	 1.6144616633	 0.0188702606	 0.126664
H	-0.4379664503	-0.8105354363	-0.4174022725	 0.098611
H	 1.7862477883	-1.4247195733	-0.1304699493	 0.237491
H	-0.6517706512	-1.8100855654	 2.5802536278	 0.109346
H	-0.4692808137	-3.8991759484	 1.2605716004	 0.125396
H	 0.82836341	-3.1903248548	 0.2110199578	 0.112802
H	 2.2752921679	-2.7670562099	 2.2256637532	 0.128801
H	 1.0155635757	-3.5222235984	 3.3044617705	 0.126988
66.1673	137.23	143.4077	171.6145	192.9093	247.499	299.3038	382.8667	451.992	480.6471	570.1109	612.0533	639.3423	774.6241	807.947	831.7094	870.4086	890.1425	928.3251	964.2929	1021.5646	1031.755	1061.876	1077.4083	1084.481	1117.8051	1136.8935	1157.0483	1195.4061	1221.8326	1230.288	1261.7542	1318.6672	1408.6343	1411.6913	1447.9846	1472.0568	1486.3909	1495.95	1509.3871	2355.2863	3041.8206	3106.062	3114.2521	3127.9377	3138.2834	3141.602	3149.9774	3209.0792	3230.3704	3503.3072
CC1NC1(C#N)C1CC1	C[C@H]1N[C@]1(C#N)C1CC1	
InChI=1S/C7H10N2/c1-5-7(4-8,9-5)6-2-3-6/h5-6,9H,2-3H2,1H3	InChI=1S/C7H10N2/c1-5-7(4-8,9-5)6-2-3-6/h5-6,9H,2-3H2,1H3/t5-,7+/m1/s1
