20
gdb 14977	4.19265	1.41421	1.13116	0.9274	76.83	-0.2395	0.0288	0.2683	1094.9181	0.178173	-349.014669	-349.006588	-349.005644	-349.047191	30.471	
C	 0.0729724405	 1.367178512	-0.1217982402	-0.239474
O	-0.1267849037	-0.0094036168	 0.0958114459	-0.247904
C	 0.6116546332	-0.5540737299	 1.1777697874	 0.141334
C	 0.026427871	-1.9323450632	 1.4763161718	-0.216156
C	 0.696750241	-2.5654332661	 2.7036671212	-0.262156
C	 2.1940602518	-2.4014422881	 2.6764847623	-0.041185
C	 2.8244546979	-1.5645609247	 1.8534236984	-0.056326
C	 2.1147414108	-0.6644056858	 0.8729427624	-0.265658
H	 1.0909253892	 1.6012593123	-0.4663227271	 0.105268
H	-0.6320622387	 1.6760714148	-0.8980361588	 0.124706
H	-0.1248764756	 1.9560200063	 0.7883678543	 0.100637
H	 0.479507965	 0.0894369498	 2.066113083	 0.061246
H	-1.0543171723	-1.8423043663	 1.620546719	 0.099092
H	 0.1816384379	-2.5685725858	 0.5965289605	 0.10547
H	 0.2968359125	-2.1218961415	 3.6279390315	 0.107607
H	 0.4393776002	-3.6304928299	 2.7608471113	 0.104322
H	 2.7695590382	-3.0064178706	 3.3733643178	 0.082878
H	 3.9099955902	-1.5024642059	 1.8749668487	 0.08277
H	 2.2321057239	-1.043844661	-0.152791184	 0.114023
H	 2.584207057	 0.3268523904	 0.8822565346	 0.099506
82.6101	123.1121	182.6463	209.1323	268.8049	379.0023	396.6057	461.7698	477.6322	510.3756	675.212	740.5317	822.9727	879.6305	927.0306	940.1829	962.3261	1004.0745	1031.3471	1049.9085	1084.0447	1107.4046	1150.1476	1153.2324	1181.9427	1205.2631	1217.3283	1253.704	1271.2709	1329.5406	1332.532	1363.7838	1380.4087	1405.0965	1416.5756	1476.2869	1479.3684	1480.9973	1492.8362	1501.5298	1511.4824	1725.7627	2939.8246	2972.9691	2996.9182	3005.0218	3021.914	3032.6123	3045.4853	3047.3332	3089.0293	3107.2029	3140.6507	3164.6402
COC1CCC=CC1	CO[C@H]1CCC=CC1	
InChI=1S/C7H12O/c1-8-7-5-3-2-4-6-7/h2-3,7H,4-6H2,1H3	InChI=1S/C7H12O/c1-8-7-5-3-2-4-6-7/h2-3,7H,4-6H2,1H3/t7-/m1/s1
