20
gdb 14100	3.13521	1.639	1.37148	1.7304	75.23	-0.2509	0.0788	0.3297	1019.2403	0.175682	-348.988462	-348.979899	-348.978955	-349.02125	32.188	
C	-0.0149643971	 1.5602951924	-0.1059545992	-0.415975
C	-0.0312954963	 0.0615747564	 0.0439002003	-0.022374
O	 1.2292489682	-0.6186447281	-0.1082059292	-0.301021
C	 0.6047245807	-0.6431623713	 1.1635407733	 0.433932
C	 1.1920031391	-0.0697034525	 2.4556235021	-0.317457
C	 0.3603167383	-1.1380940735	 3.2254508379	-0.236132
C	 0.1446323301	-1.9163594978	 1.889362408	-0.036826
C	-1.217613977	-2.518334581	 1.5825822076	-0.417518
H	 0.8227634361	 1.9999503191	 0.4409460223	 0.127165
H	 0.0820483246	 1.8394893889	-1.1604220637	 0.128714
H	-0.9476019775	 1.9949785776	 0.2708751703	 0.11837
H	-0.8569391871	-0.443778139	-0.4612635276	 0.086403
H	 2.2686341601	-0.2530226927	 2.5185652018	 0.113883
H	 1.0006382536	 0.9821789729	 2.6809091712	 0.102739
H	 0.864498593	-1.6716696318	 4.0330661189	 0.101221
H	-0.5785187523	-0.7275036335	 3.608391714	 0.101198
H	 0.9264941808	-2.6773594378	 1.776467492	 0.083877
H	-2.0131568349	-1.7729826656	 1.6919636966	 0.111218
H	-1.2580404199	-2.9076987625	 0.5593570485	 0.122821
H	-1.4424850028	-3.3486819402	 2.2606525348	 0.115762
90.1006	143.3721	172.5865	194.4293	229.5371	247.682	353.357	445.8875	460.6466	498.7462	549.2669	694.8572	782.2833	795.23	867.0213	884.8215	932.7653	943.2346	968.3154	1015.9779	1039.6229	1099.1791	1124.4703	1138.9797	1147.9156	1171.4329	1190.2516	1216.0536	1247.168	1271.2842	1278.7289	1348.7201	1370.6673	1406.6695	1408.616	1468.206	1475.8461	1489.3265	1494.3416	1495.7683	1497.2183	1522.4792	3025.8636	3033.3241	3034.9374	3057.6893	3061.7196	3086.4878	3094.5533	3095.3367	3097.2818	3106.0198	3122.7134	3126.2896
CC1OC11CCC1C	C[C@H]1O[C@]21CC[C@H]2C	
InChI=1S/C7H12O/c1-5-3-4-7(5)6(2)8-7/h5-6H,3-4H2,1-2H3	InChI=1S/C7H12O/c1-5-3-4-7(5)6(2)8-7/h5-6H,3-4H2,1-2H3/t5-,6-,7-/m1/s1
