20
gdb 112888	2.32698	1.43235	1.13087	4.4259	75.4	-0.2332	0.0123	0.2455	1183.7954	0.171585	-440.325859	-440.316751	-440.315807	-440.359763	33.749	
C	-0.4342662175	 1.0706637266	 0.0628541344	-0.325405
N	 0.0642701769	-0.2998209214	-0.0516142785	-0.293717
C	 0.902256581	-0.5361886249	-1.2301058845	-0.106477
C	 1.5174274807	-1.9373904402	-1.2168813989	-0.278893
C	 0.4755988886	-2.8035815188	-1.9579197751	 0.131586
C	-0.5397523303	-3.4932028791	-1.0560312975	-0.400987
O	-0.2083871778	-1.879240972	-2.8367570292	-0.225655
C	-0.0116528635	-0.5911333969	-2.4683296931	 0.45941
O	-0.5152896654	 0.3292480992	-3.0475490785	-0.347684
H	 0.3671085947	 1.8295560833	 0.0777095274	 0.097449
H	-1.086323425	 1.295736152	-0.7833358626	 0.160961
H	-1.0166440699	 1.1616657513	 0.9837605436	 0.117482
H	 0.6103245716	-0.5277894863	 0.7726429262	 0.220422
H	 1.653551984	 0.2551371095	-1.3842272993	 0.080994
H	 2.4629354241	-1.9317620198	-1.7660606052	 0.116731
H	 1.7167174604	-2.3076393063	-0.2077547725	 0.107107
H	 0.9581012882	-3.5355951126	-2.6117475344	 0.094792
H	-1.0054803514	-2.763448117	-0.3886477881	 0.147441
H	-1.3156577384	-3.9755813869	-1.6564708165	 0.130663
H	-0.044460411	-4.2607601097	-0.4520601279	 0.11378
84.4526	118.033	128.1885	194.6671	236.3938	256.3236	309.2442	345.8128	390.1836	431.7438	498.8376	668.7335	718.7542	735.6188	765.2911	797.0152	889.5626	916.1383	951.3892	993.2681	1030.3828	1059.8598	1104.6236	1132.7724	1140.3025	1155.5255	1181.7643	1202.0809	1238.5245	1291.7736	1331.6428	1350.7063	1377.0051	1391.0028	1409.5673	1458.6946	1473.1727	1486.5043	1489.2696	1497.574	1504.5267	1523.3526	1868.269	2958.7029	2966.3259	3040.9779	3058.4736	3070.1351	3084.5655	3108.0981	3114.854	3134.9211	3136.7068	3515.0094
CNC1CC(C)OC1=O	CN[C@H]1C[C@@H](C)OC1=O	
InChI=1S/C6H11NO2/c1-4-3-5(7-2)6(8)9-4/h4-5,7H,3H2,1-2H3	InChI=1S/C6H11NO2/c1-4-3-5(7-2)6(8)9-4/h4-5,7H,3H2,1-2H3/t4-,5+/m1/s1
