21
gdb 58484	2.22684	1.29571	1.05873	1.7149	85.22	-0.2415	0.0453	0.2868	1262.13	0.178863	-387.050547	-387.040172	-387.039227	-387.085167	39.427	
C	-0.3138881984	 1.4741415381	 0.0974284159	-0.412892
C	 0.1054200751	 0.0124322897	-0.1233755209	-0.013798
C	 1.0070496798	-0.1344960452	-1.357154389	-0.394332
C	 0.790315254	-0.5445611763	 1.1174373189	 0.418631
O	 2.0157063324	 0.0618720752	 1.4448656608	-0.475122
C	-0.0196204678	-1.078420136	 2.2646447154	-0.36132
C	 0.8045167247	-2.0356938578	 1.3970456582	-0.258795
C	 0.1599167068	-2.9802970306	 0.5344219342	 0.335599
C	-0.3770092529	-3.7836698138	-0.1832076851	-0.458705
H	 0.5615811202	 2.1214463071	 0.2285502614	 0.1086
H	-0.8661488125	 1.8540663579	-0.7673034283	 0.117712
H	-0.9538821776	 1.5811559083	 0.9798292853	 0.112025
H	-0.8004287735	-0.5841369735	-0.2821234907	 0.085155
H	 1.9577957753	 0.3832283981	-1.1993728479	 0.12252
H	 1.2223409389	-1.18734797	-1.5592909404	 0.127804
H	 0.5260979449	 0.2913677574	-2.2434781857	 0.103308
H	 1.8248209802	 0.9321525121	 1.8119318663	 0.285245
H	 0.3488266821	-0.902942011	 3.2690486822	 0.117198
H	-1.0980538046	-1.1253700136	 2.1624367554	 0.123546
H	 1.7298720371	-2.3766841624	 1.8511137612	 0.123797
H	-0.8472529943	-4.4926098637	-0.8182450273	 0.193824
81.127	111.1097	149.7877	213.3049	226.1422	242.3026	270.6672	290.074	303.8464	352.949	401.9806	432.8329	513.1779	533.2274	583.506	623.5547	651.2983	688.0808	804.8782	868.8333	907.3433	931.4176	932.6421	957.0375	967.8195	1040.4893	1064.7727	1090.9415	1115.704	1136.9962	1190.2727	1227.8827	1291.1906	1319.4964	1342.2478	1359.3332	1394.6004	1411.305	1418.1948	1475.6643	1488.5147	1492.9729	1506.3871	1515.1012	2233.2606	3024.9152	3039.5877	3043.2444	3090.1221	3103.4589	3109.5867	3120.0571	3135.245	3157.6265	3230.8007	3504.5541	3798.1827
CC(C)C1(O)CC1C#C	CC(C)[C@@]1(O)C[C@H]1C#C	
InChI=1S/C8H12O/c1-4-7-5-8(7,9)6(2)3/h1,6-7,9H,5H2,2-3H3	InChI=1S/C8H12O/c1-4-7-5-8(7,9)6(2)3/h1,6-7,9H,5H2,2-3H3/t7-,8+/m1/s1
