18
gdb 64823	2.48337	1.36946	1.06232	3.185	73.45	-0.2367	-0.076	0.1607	1173.8736	0.145171	-439.077272	-439.067894	-439.06695	-439.111831	33.763	
C	-0.0962154256	 1.3825276849	-1.0725336462	-0.47187
C	-0.3492598758	 0.3289412604	-0.0162270882	 0.340725
C	-1.6652463672	 0.4986079163	 0.7626015645	-0.391433
C	-1.4079070793	 0.3931757371	 2.2555215354	 0.334951
O	-1.4337212785	 1.3280856258	 3.0198294433	-0.289388
C	-1.1378151383	-1.00018469	 2.8277785036	 0.099272
O	-1.4628032567	-2.0210685561	 2.2757355429	-0.238126
C	 0.2417198119	-1.0221235707	-0.1960785841	-0.275466
N	 0.7782010306	-0.1134340466	 0.8332532533	-0.350251
H	 0.8482932619	 1.1983184915	-1.5949070694	 0.115736
H	-0.8971623591	 1.3872916081	-1.8200143974	 0.131805
H	-0.0533736946	 2.3823108128	-0.6257590744	 0.133064
H	-2.0960792492	 1.4846728999	 0.5752319753	 0.122662
H	-2.3896753151	-0.2657516852	 0.4641634412	 0.136715
H	-0.6776891109	-0.9709592591	 3.8364900819	 0.10628
H	-0.2716442069	-1.8953639149	 0.1948131466	 0.148766
H	 0.8404260037	-1.1975255566	-1.0864359796	 0.112674
H	 1.6546609592	 0.3059370824	 0.5344450613	 0.233883
67.1993	84.793	136.2928	150.0205	203.7791	239.8358	345.3722	362.8934	390.1729	416.6036	467.4807	545.937	603.5565	725.3243	799.1693	831.6343	913.7163	941.9492	953.3988	981.7645	1002.2383	1019.8218	1059.8916	1117.1885	1147.1249	1164.5913	1251.4924	1260.7203	1297.1811	1339.6958	1366.1095	1383.6308	1418.4372	1468.423	1484.7634	1499.3541	1510.8153	1809.342	1809.7743	2937.4573	3025.6588	3059.766	3092.6487	3100.2702	3111.0248	3117.7963	3203.5038	3503.1044
CC1(CC(=O)C=O)CN1	C[C@@]1(CC(=O)C=O)CN1	
InChI=1S/C6H9NO2/c1-6(4-7-6)2-5(9)3-8/h3,7H,2,4H2,1H3	InChI=1S/C6H9NO2/c1-6(4-7-6)2-5(9)3-8/h3,7H,2,4H2,1H3/t6-/m1/s1
