15
gdb 8770	3.61138	1.22154	1.14929	2.1457	62.01	-0.264	-0.0432	0.2208	1060.2191	0.116007	-399.811677	-399.802617	-399.801672	-399.846166	30.837	
C	-0.0560963931	 1.5228938636	 0.1224818322	-0.439021
C	 0.0064810521	-0.0102992356	 0.001337774	-0.071788
C	-1.4073951425	-0.5761530307	 0.0307138798	 0.139404
O	-1.9002340508	-1.0925414449	 0.9990758902	-0.239166
C	 0.7261779575	-0.4701201155	-1.2946682254	-0.038277
O	 0.1136888285	 0.0105088459	-2.4768981777	-0.411874
C	 2.1561319668	-0.1053014175	-1.2445793102	 0.264712
N	 3.263652538	 0.2222742443	-1.2049770404	-0.311973
H	 0.9472810564	 1.956978063	 0.0738407498	 0.15206
H	-0.6671736847	 1.96364991	-0.6726242311	 0.126538
H	-0.5040560716	 1.80620278	 1.0777279214	 0.150876
H	 0.541012191	-0.4260620889	 0.8612617583	 0.121668
H	-1.9746160472	-0.4533987176	-0.9171229561	 0.101649
H	 0.6669747509	-1.5623189071	-1.364118409	 0.151762
H	 0.2952215087	 0.953658741	-2.5579496856	 0.303432
43.1819	68.9769	138.362	215.0254	226.1412	245.8136	302.0055	317.6303	346.3767	428.0822	481.9188	595.7486	697.691	835.7411	887.8424	931.8837	989.2014	1025.6659	1089.8914	1128.0973	1160.1255	1254.6059	1273.113	1330.8124	1346.3118	1401.2289	1419.7972	1422.1583	1499.2734	1508.1695	1834.4497	2354.2814	2905.9724	3038.572	3056.4404	3072.9795	3108.981	3127.9062	3810.5717
CC(C=O)C(O)C#N	C[C@@H](C=O)[C@@H](O)C#N	
InChI=1S/C5H7NO2/c1-4(3-7)5(8)2-6/h3-5,8H,1H3	InChI=1S/C5H7NO2/c1-4(3-7)5(8)2-6/h3-5,8H,1H3/t4-,5-/m0/s1
