17
gdb 24137	5.4447	0.96601	0.85517	1.6987	75.33	-0.2011	0.0311	0.2322	1333.2325	0.137714	-418.019368	-418.011544	-418.0106	-418.052553	29.372	
C	-0.3418515624	 1.1296894882	-0.2214829757	-0.233979
C	 1.0801082979	 1.1265629867	 0.2812893696	-0.293907
C	 0.3610459839	-0.1730847301	 0.0415504987	 0.051859
N	-0.0244105833	-0.9282537388	 1.1985497552	-0.398119
C	-1.0860861706	-1.7865376787	 1.1173341931	 0.500962
N	-2.0053674397	-1.8568433358	 0.2021856782	-0.347687
C	-2.8474018924	-2.8678501183	 0.6662942919	-0.107864
C	-2.3820412648	-3.3557382842	 1.8329600444	-0.056703
O	-1.2270872063	-2.6583083284	 2.144611447	-0.20459
H	-1.1209710565	 1.4128323681	 0.4752323939	 0.127578
H	-0.5319098277	 1.3974329348	-1.2539768686	 0.120711
H	 1.8790276147	 1.3953336128	-0.4001258243	 0.118128
H	 1.2463210597	 1.4181569298	 1.3123659567	 0.118021
H	 0.649740648	-0.7584867321	-0.829697998	 0.099322
H	 0.7238642964	-1.2561291582	 1.792002471	 0.251384
H	-3.7248701134	-3.1654822608	 0.1140604152	 0.117461
H	-2.6821720835	-4.1160668851	 2.5313547316	 0.137421
62.889	80.0689	130.2768	280.197	349.8653	367.9444	461.5907	541.2501	613.423	691.3644	759.6816	763.9988	780.6985	845.8221	852.8463	860.9309	928.2676	948.3199	1003.8248	1023.1931	1063.3485	1079.5627	1084.2296	1127.2307	1138.0311	1183.5565	1193.3768	1196.4925	1243.2105	1265.4863	1356.1618	1404.104	1461.15	1498.9178	1521.2772	1585.2894	1658.0571	3113.1298	3139.8269	3152.0725	3224.0509	3243.7545	3260.4309	3308.7648	3601.697
C1CC1NC1=NC=CO1	C1CC1Nc1ncco1	
InChI=1S/C6H8N2O/c1-2-5(1)8-6-7-3-4-9-6/h3-5H,1-2H2,(H,7,8)	InChI=1S/C6H8N2O/c1-2-5(1)8-6-7-3-4-9-6/h3-5H,1-2H2,(H,7,8)
