15
gdb 131271	5.73184	0.98367	0.89266	3.3008	67.52	-0.2272	0.0152	0.2424	1250.8863	0.115623	-450.127842	-450.120295	-450.11935	-450.160487	28.045	
O	-0.1102047245	 1.2744087411	 0.1990887682	-0.41782
C	 0.0131272462	-0.0414157734	 0.0102491992	 0.455797
N	-0.009832628	-0.6919372896	-1.1309428784	-0.415363
C	 0.1569128818	-1.9936355553	-0.7284206721	 0.368722
N	 0.2707391959	-2.1650374874	 0.5774855674	-0.30765
N	 0.1830232409	-0.8804273351	 1.0450111427	-0.25085
C	 0.204335374	-3.1197665145	-1.6809080965	-0.093614
C	 1.3006206344	-4.1284159883	-1.5708942786	-0.227383
N	-0.0710912826	-4.4824079538	-1.1988468862	-0.31776
H	-0.2221015573	 1.67243028	-0.6738628257	 0.323443
H	 0.2169749994	-0.6813694625	 2.03017349	 0.286605
H	-0.2001770918	-2.8833092118	-2.6598833615	 0.105153
H	 1.6757012922	-4.6108263579	-2.4694745848	 0.119692
H	 2.0324386122	-3.9726953691	-0.7834456425	 0.123043
H	-0.1665624028	-4.4437310324	-0.1853953311	 0.247983
50.2822	159.8472	177.2145	300.6547	345.7219	414.8867	423.9902	485.2585	496.6896	675.2923	733.0391	762.0574	778.95	833.0065	892.4549	973.3116	997.6825	1025.2166	1085.8221	1101.6635	1133.7613	1156.13	1182.9796	1195.8554	1261.2853	1299.2274	1310.2798	1358.5527	1445.079	1502.8884	1522.6964	1583.2074	1639.6249	3109.3371	3164.5107	3201.7638	3490.4122	3679.893	3802.1866
OC1=NC(=NN1)C1CN1	Oc1nc(n[nH]1)[C@H]1CN1	
InChI=1S/C4H6N4O/c9-4-6-3(7-8-4)2-1-5-2/h2,5H,1H2,(H2,6,7,8,9)	InChI=1S/C4H6N4O/c9-4-6-3(7-8-4)2-1-5-2/h2,5H,1H2,(H2,6,7,8,9)/t2-/m1/s1
