18
gdb 54712	4.33516	1.20034	1.0975	3.6742	77.75	-0.2258	0.0236	0.2494	1144.1406	0.147028	-401.884434	-401.87653	-401.875586	-401.917524	29.786	
C	-0.0694656647	 1.4703350386	-0.155656544	-0.484499
C	 0.0082391572	-0.0439062194	-0.0423378978	 0.360277
O	 0.9744330459	-0.6890898723	-0.4017578708	-0.358335
N	-1.0767280713	-0.6351650326	 0.5760099097	-0.107549
C	-2.523798731	-0.4280746642	 0.2684432514	-0.028882
C	-2.5556103282	-1.5152228978	-0.8657207299	-0.055793
C	-3.7449694045	-2.2486617301	-0.2142754743	-0.276356
C	-2.9170504502	-1.7565099766	 0.9907161597	-0.054652
C	-1.5610182219	-2.0032960297	 0.2512557092	-0.006001
H	 0.9401973994	 1.8698444392	-0.2544936459	 0.146755
H	-0.6364891697	 1.7451650648	-1.0528451935	 0.137169
H	-0.5677156308	 1.9193059753	 0.7074201191	 0.132303
H	-3.0197679156	 0.541132664	 0.3089577505	 0.094973
H	-2.3185352405	-1.3615712455	-1.918857955	 0.091279
H	-4.7328290806	-1.7990720907	-0.3470708006	 0.102762
H	-3.793007401	-3.3304759484	-0.3642041874	 0.10643
H	-3.0913905181	-1.8717835463	 2.0600487303	 0.088358
H	-0.9190136443	-2.8804253183	 0.2601611293	 0.111762
71.6734	100.0347	114.8178	167.3127	355.9021	400.8769	501.9394	566.3283	627.9045	673.9931	733.7383	800.7334	832.0242	835.4503	878.2772	912.2527	930.3011	962.1964	1015.7818	1025.6871	1045.6751	1048.5954	1053.9933	1077.9518	1128.5983	1143.5272	1154.3675	1171.2515	1175.7102	1194.4753	1245.4677	1267.1697	1320.3292	1364.4487	1395.	1470.8376	1481.5577	1515.2603	1773.9171	3040.8686	3054.4439	3109.0689	3111.8	3114.4412	3121.7726	3132.2063	3155.6745	3162.0968
CC(=O)N1C2C3CC2C13	CC(=O)N1[C@H]2[C@@H]3C[C@H]2[C@H]13	
InChI=1S/C7H9NO/c1-3(9)8-6-4-2-5(6)7(4)8/h4-7H,2H2,1H3	InChI=1S/C7H9NO/c1-3(9)8-6-4-2-5(6)7(4)8/h4-7H,2H2,1H3/t4-,5+,6-,7+
