17
gdb 65894	3.71994	0.76784	0.72151	3.2414	81.25	-0.2649	-0.0633	0.2016	1586.6373	0.133194	-421.785491	-421.775934	-421.77499	-421.82151	32.766	
C	-0.296958505	 1.607909622	-0.2392800087	-0.432516
C	 0.0022161163	 0.1203716851	-0.0679900892	 0.209037
C	 0.8714998094	-0.5465112377	-1.1801273358	-0.321977
C	 1.8980838677	-0.7653569971	-0.0546368751	-0.067642
O	 1.0570981886	-0.096045515	 0.9110846694	-0.300921
C	-1.2087289956	-0.6206019483	 0.2680517114	 0.163669
C	-2.2221368814	-1.2289038398	 0.5213954714	-0.020419
C	-3.411261249	-1.9636610793	 0.8661309642	 0.018204
O	-4.3625719407	-2.1109710943	 0.1331624872	-0.230119
H	 0.6249150346	 2.1369666511	-0.4947590063	 0.125273
H	-1.0341001675	 1.7638441818	-1.0323837851	 0.135482
H	-0.6920919924	 2.0227983447	 0.691738327	 0.141752
H	 0.4484160891	-1.4464352104	-1.62470662	 0.130183
H	 1.1731743506	 0.1450890516	-1.9679537549	 0.121656
H	 2.0768546358	-1.811549521	 0.2186620543	 0.113648
H	 2.8615262184	-0.2577546417	-0.1733050347	 0.111262
H	-3.3917608489	-2.3993035619	 1.8857339848	 0.10343
41.358	62.5414	88.0099	111.0024	209.3164	235.3041	261.7008	316.9947	348.1401	491.2794	540.0884	576.8081	689.9553	780.2933	840.9621	877.3179	894.4607	971.3497	997.8178	1020.9991	1022.1805	1067.0724	1121.7599	1161.483	1184.886	1211.8131	1258.6409	1280.5947	1349.1137	1400.2866	1420.3337	1477.3258	1484.7118	1492.1413	1531.3511	1765.8797	2316.3445	2921.1845	3029.2119	3044.2276	3071.33	3090.9846	3125.1116	3128.4043	3153.4923
CC1(CCO1)C#CC=O	C[C@]1(CCO1)C#CC=O	
InChI=1S/C7H8O2/c1-7(3-2-5-8)4-6-9-7/h5H,4,6H2,1H3	InChI=1S/C7H8O2/c1-7(3-2-5-8)4-6-9-7/h5H,4,6H2,1H3/t7-/m1/s1
