19
gdb 80463	2.21761	1.63746	1.42058	4.2632	74.73	-0.2331	-0.0088	0.2243	1038.3478	0.159523	-423.043718	-423.03528	-423.034336	-423.076667	32.523	
C	 0.6101525201	 1.5258435463	 0.0870853285	-0.402408
C	 0.1094824124	 0.0799331392	 0.03703175	-0.066012
C	 0.5575140403	-0.7584579802	-1.1859144657	-0.255709
C	 1.1662932298	-2.0609586877	-0.6511310778	-0.114574
C	 2.4469910916	-1.9204946439	 0.1118784165	 0.098461
O	 3.1328642391	-0.7014091881	 0.1535248025	-0.406245
C	 1.1501855019	-2.0212341628	 0.8758184107	-0.204277
C	 0.5194820845	-0.719908545	 1.2860378091	 0.417949
O	 0.3019447865	-0.379015169	 2.4215655301	-0.338507
H	 1.7022488972	 1.551359251	 0.0392691981	 0.129781
H	 0.2095465917	 2.1101984037	-0.7469781734	 0.107205
H	 0.296522443	 1.9962163905	 1.0228093169	 0.135788
H	-0.9879753074	 0.0948617042	 0.074732798	 0.105543
H	-0.2884397742	-0.9881649659	-1.8382836517	 0.106107
H	 1.286092975	-0.2086066168	-1.7918199981	 0.09394
H	 0.9792752098	-2.9845156138	-1.1875592257	 0.093305
H	 3.087084151	-2.79976708	 0.1780677064	 0.097972
H	 3.6237322945	-0.6062880721	-0.6702305397	 0.292392
H	 0.9945814632	-2.8795945495	 1.5175835451	 0.10929
71.8615	133.2431	214.6442	248.5719	249.2337	304.5859	356.4772	412.3439	492.2299	553.8314	600.08	623.0451	712.1709	768.3995	789.5546	820.8003	907.2821	923.9758	955.5714	978.9718	1031.6845	1046.1208	1066.7506	1114.0251	1122.3796	1144.8485	1173.3977	1217.6148	1232.649	1271.1084	1281.4479	1309.5827	1326.7283	1331.2433	1358.7241	1398.4377	1439.4027	1494.0011	1498.1747	1508.8798	1830.4046	3018.39	3041.0426	3044.6225	3092.8762	3105.7616	3113.9418	3128.0729	3169.7287	3193.1639	3800.2992
CC1CC2C(O)C2C1=O	C[C@H]1C[C@H]2[C@@H](O)[C@H]2C1=O	
InChI=1S/C7H10O2/c1-3-2-4-5(6(3)8)7(4)9/h3-5,7,9H,2H2,1H3	InChI=1S/C7H10O2/c1-3-2-4-5(6(3)8)7(4)9/h3-5,7,9H,2H2,1H3/t3-,4+,5+,7+/m0/s1
