25
gdb 58623	2.21902	1.19475	1.07555	1.4379	87.93	-0.2623	0.0668	0.3291	1343.0426	0.226651	-389.483051	-389.472142	-389.471198	-389.518514	41.795	
C	 0.6545751165	-0.4230217683	 1.3187573177	-0.382304
C	 0.0250591218	-0.0817888163	-0.0444143345	-0.042548
C	 0.9816238143	-0.4771706151	-1.1781273793	-0.407968
C	-1.3896107814	-0.6810498063	-0.1604505378	 0.373199
C	-1.852405332	-1.3875774431	-1.4151226078	-0.33366
C	-1.5359876175	-2.182596465	-0.1731608477	-0.307539
C	-2.4618022547	 0.1241285147	 0.5998213419	 0.05587
C	-2.8005687123	 1.4528352822	-0.0820431803	-0.409876
O	-3.6558112247	-0.6219319961	 0.8292226564	-0.433647
H	 1.6092209069	 0.0981936868	 1.4463666809	 0.106521
H	 0.008535982	-0.1398270886	 2.1548801328	 0.115874
H	 0.8467304014	-1.4981589159	 1.4005406592	 0.115883
H	-0.0763841139	 1.0105036839	-0.0906820653	 0.068846
H	 1.1168748151	-1.5630691562	-1.2376308764	 0.116505
H	 0.6282499722	-0.1251523482	-2.1511509913	 0.11519
H	 1.9690812305	-0.0372839151	-1.0048597197	 0.110191
H	-2.8971462794	-1.2942768996	-1.6977101731	 0.083802
H	-1.1829683504	-1.4629211532	-2.263003044	 0.109124
H	-0.6322323148	-2.7832228899	-0.1778929168	 0.102972
H	-2.3646142726	-2.6056003033	 0.3803837006	 0.124689
H	-2.0801940064	 0.3317422617	 1.6066936573	 0.085216
H	-3.191649188	 1.2757366209	-1.0916405689	 0.110013
H	-3.5609579832	 1.9853287581	 0.4962406542	 0.121047
H	-1.9276435738	 2.1038466683	-0.1780381629	 0.123074
H	-4.1874326556	-0.5856910065	 0.0271897849	 0.279526
49.6951	82.9052	203.1789	215.9683	223.0183	237.7726	255.3656	272.0077	293.4717	313.6257	343.6857	392.9416	416.5155	473.8362	497.9076	587.0694	664.5119	787.5106	818.3232	886.7789	906.9131	921.2751	927.9183	938.5422	961.5241	979.9952	1047.208	1059.5231	1072.8019	1086.652	1104.4949	1124.8469	1134.1831	1184.2427	1195.666	1244.576	1292.6882	1320.1566	1343.6682	1356.7695	1377.392	1398.4296	1404.5477	1419.638	1422.2077	1458.503	1486.8795	1491.5645	1494.2438	1495.8597	1503.2518	1507.5335	1511.6437	3012.5425	3028.7877	3030.6901	3034.3934	3038.533	3093.9367	3100.0598	3101.8202	3106.5013	3108.9225	3120.5695	3126.5303	3137.3099	3212.7757	3233.22	3810.3006
CC(C)C1(CC1)C(C)O	CC(C)C1(CC1)[C@@H](C)O	
InChI=1S/C8H16O/c1-6(2)8(4-5-8)7(3)9/h6-7,9H,4-5H2,1-3H3	InChI=1S/C8H16O/c1-6(2)8(4-5-8)7(3)9/h6-7,9H,4-5H2,1-3H3/t7-/m1/s1
