15
gdb 42288	3.04317	1.30525	0.92625	3.358	75.97	-0.2647	-0.0681	0.1966	1183.0367	0.113001	-412.989898	-412.981422	-412.980478	-413.02462	29.874	
N	-0.1492230674	 1.3494849155	 0.2828186104	-0.491231
C	 0.0361325862	 0.0976282549	 0.1184274584	 0.254217
C	-1.1324490375	-0.7710812825	 0.1425625086	 0.308187
N	-2.0336065536	-1.4941188888	 0.1512032395	-0.322819
N	 1.2054491229	-0.6041657328	-0.0884761265	-0.153852
C	 1.4376602224	-2.0345848449	-0.3863738379	-0.181834
C	 2.9579062211	-1.7098515956	-0.4275580828	-0.323921
C	 2.5829694175	-0.2726529022	-0.0925428117	 0.397812
N	 3.2823833364	 0.7542619022	 0.1121052071	-0.530011
H	 0.720948154	 1.8754741846	 0.2250516825	 0.230792
H	 1.1183593323	-2.7001598793	 0.4186782001	 0.145231
H	 0.9934391867	-2.3563857994	-1.3308237434	 0.143277
H	 3.5639682028	-2.2023477846	 0.3336407518	 0.148619
H	 3.4304690581	-1.8299693587	-1.4032977877	 0.148196
H	 2.7476439581	 1.5875560818	 0.3462191814	 0.227338
21.0779	92.8425	132.8312	171.89	237.1947	307.7296	388.6761	462.0773	502.6456	587.6431	667.4467	713.1098	772.4259	795.3133	806.2733	857.8561	907.9352	968.5791	991.7199	1058.3674	1110.1494	1156.4088	1182.8282	1197.5221	1236.1737	1264.0635	1335.8032	1395.8227	1467.3969	1518.8761	1670.0626	1787.0907	2361.4149	3069.4415	3096.2723	3122.5009	3152.392	3509.1492	3524.7443
N=C(C#N)N1CCC1=N	[NH][C](C#N)N1CC[C]1[NH]	
InChI=1S/C5H6N4/c6-3-5(8)9-2-1-4(9)7/h7-8H,1-2H2	InChI=1S/C5H6N4/c6-3-5(8)9-2-1-4(9)7/h7-8H,1-2H2
