17
gdb 67489	2.50475	1.66799	1.26177	5.9369	77.28	-0.225	0.0298	0.2548	1034.247	0.135878	-380.795215	-380.787366	-380.786422	-380.827265	30.61	
C	 0.0142825217	 1.5149148288	 0.0004851116	-0.498934
C	-0.0287271561	 0.0156094259	 0.0358754047	 0.320077
C	-1.3728419852	-0.7716827655	 0.1409030803	-0.120464
N	-1.1409044527	-2.1787784757	-0.2419451589	-0.314865
C	-0.7742634792	-1.7113451652	 1.1101546562	-0.051736
C	 0.5873069114	-0.973147074	 1.0206497158	-0.131775
C	 1.1374248616	-0.8579572264	-0.3919584046	-0.223418
C	 1.2045585215	-1.86028798	-1.4272658731	 0.322085
N	 1.4108090111	-2.5949266546	-2.2973026369	-0.371079
H	 1.0251020842	 1.888175629	 0.1912507794	 0.126565
H	-0.3061528755	 1.8969919507	-0.9758228777	 0.135241
H	-0.6491710882	 1.943183506	 0.7606467474	 0.125745
H	-2.3552706184	-0.3196865902	 0.1038304524	 0.102503
H	-2.0269916898	-2.6780913057	-0.1816396011	 0.239442
H	-1.1837572325	-2.1618326475	 2.0037651305	 0.106119
H	 1.2224689843	-0.7757760452	 1.8752042985	 0.102418
H	 2.0567179118	-0.2739914205	-0.3826787642	 0.132076
126.5261	175.2991	209.9465	220.406	284.9323	350.0463	405.6958	471.2459	541.3565	626.7203	673.5215	744.9552	760.0396	821.6039	840.0683	885.4562	898.1772	922.305	950.8741	954.779	987.4051	1042.7247	1082.123	1098.4318	1107.8778	1135.697	1202.655	1224.8827	1274.2781	1306.8739	1331.5547	1357.7511	1416.7922	1453.7839	1483.0693	1497.6623	2346.7665	3024.3828	3084.3334	3103.0782	3125.596	3190.4798	3199.187	3214.6579	3487.7099
CC12C3NC3C1C2C#N	C[C@]12[C@H]3N[C@H]3[C@H]1[C@H]2C#N	
InChI=1S/C7H8N2/c1-7-3(2-8)4(7)5-6(7)9-5/h3-6,9H,1H3	InChI=1S/C7H8N2/c1-7-3(2-8)4(7)5-6(7)9-5/h3-6,9H,1H3/t3-,4-,5+,6+,7-/m1/s1
