20
gdb 30261	4.4605	1.21527	0.98943	2.2601	86.32	-0.1909	0.0524	0.2433	1221.6228	0.174304	-366.068153	-366.060431	-366.059487	-366.100244	30.727	
C	-0.0460489359	 1.5322876842	-0.0127166371	-0.407951
C	 0.1046834648	 0.0137334534	 0.0074101769	 0.035
C	 0.9442653127	-0.5503358267	-1.1698629262	-0.192394
N	 1.4952691918	-1.7664264921	-0.6019853064	 0.014108
C	 2.1438211621	-2.8706921571	-1.0860218165	-0.142983
C	 2.507370868	-3.6352089347	 0.0044581377	-0.140579
C	 2.0717376888	-2.9597206843	 1.1834044846	-0.328259
C	 1.4515265024	-1.802718829	 0.7689621392	 0.352831
C	 0.797816297	-0.555501687	 1.2816321039	-0.367223
H	 0.9306716844	 2.0250109218	 0.0520925856	 0.118832
H	-0.5344586324	 1.8750388273	-0.9312688801	 0.116306
H	-0.6506587669	 1.877302801	 0.8319931197	 0.120825
H	-0.8891845493	-0.444544127	-0.0573034739	 0.089097
H	 0.3404245224	-0.7572694294	-2.0587587279	 0.116339
H	 1.7445516339	 0.1457882618	-1.4590159695	 0.109415
H	 2.2785240445	-3.0299155464	-2.1438242555	 0.108472
H	 3.0177152323	-4.5858700441	-0.0385294428	 0.088004
H	 2.1969497745	-3.2936137475	 2.2019976081	 0.087751
H	 1.5384505724	 0.1606611966	 1.6661887838	 0.107948
H	 0.0814164824	-0.7341293907	 2.0890661163	 0.11446
86.7568	187.5549	229.2414	242.1544	271.755	414.4632	453.7662	513.2882	614.4804	643.4296	696.2295	730.5293	762.698	774.2504	824.264	833.5695	904.3052	923.1638	942.4053	959.678	1035.6739	1074.6494	1080.2748	1119.8349	1130.2072	1172.4037	1186.349	1238.8526	1241.5319	1284.1396	1302.4402	1331.3301	1346.9744	1376.419	1411.2519	1436.0685	1450.4929	1494.8626	1497.1115	1499.4847	1501.4831	1530.8726	1593.4626	2998.8053	3000.6062	3028.9855	3034.5736	3073.2026	3076.5101	3096.8218	3102.6766	3236.0789	3251.1362	3267.0164
CC1CN2C=CC=C2C1	C[C@H]1Cn2cccc2C1	
InChI=1S/C8H11N/c1-7-5-8-3-2-4-9(8)6-7/h2-4,7H,5-6H2,1H3	InChI=1S/C8H11N/c1-7-5-8-3-2-4-9(8)6-7/h2-4,7H,5-6H2,1H3/t7-/m1/s1
