19
gdb 95524	2.52236	1.58175	1.2626	2.0074	77.39	-0.2483	0.0005	0.2488	1065.0636	0.159964	-423.019024	-423.010838	-423.009894	-423.051628	32.017	
O	 0.0722094798	 1.4474135463	-0.1141095407	-0.439778
C	 0.0151150969	 0.0268478835	 0.0091185826	 0.031029
C	 0.7428836079	-0.4714034972	 1.2628301974	-0.233036
C	 0.0452973338	 0.0172183809	 2.5414924192	-0.279805
C	-1.4506027248	-0.1473353989	 2.4692097349	-0.071445
C	-2.1123030993	-0.3806836033	 1.332398256	-0.12061
C	-1.4290839086	-0.4591370432	 0.0182408388	 0.397944
C	-2.1960773004	-0.4113492786	-1.2349700423	-0.245262
O	-1.6963194402	-1.6562339431	-0.7499782939	-0.286272
H	-0.5045047987	 1.8258310702	 0.5584444109	 0.285035
H	 0.500853192	-0.3638721152	-0.8894525257	 0.093865
H	 0.7434649442	-1.5678692301	 1.2426700357	 0.114847
H	 1.7839273419	-0.1369149681	 1.2395567533	 0.102787
H	 0.4314954992	-0.5247615447	 3.4125778012	 0.113888
H	 0.2928348101	 1.0722238141	 2.7310733157	 0.11381
H	-2.0030710011	-0.0728464142	 3.4028969546	 0.095619
H	-3.1889720421	-0.5270710649	 1.3351063252	 0.093679
H	-3.2793331393	-0.2971959345	-1.2014303565	 0.111374
H	-1.7152858911	-0.0241757491	-2.1324321864	 0.122332
72.6022	173.8553	217.0436	276.006	300.6031	305.0624	388.7278	427.956	440.5339	557.1116	595.7698	676.0766	739.1765	787.1543	851.8899	866.6577	887.9536	939.394	965.8599	993.656	995.2002	1008.278	1079.8543	1089.3281	1130.8979	1153.3735	1157.7	1189.3968	1243.2337	1267.6714	1304.2282	1319.4052	1360.1285	1374.3663	1384.6185	1416.1006	1449.8456	1472.6989	1484.4797	1525.4735	1706.443	3002.165	3037.7713	3055.0156	3077.3276	3078.2054	3093.7431	3149.8751	3165.3077	3173.6938	3807.3687
OC1CCC=CC11CO1	O[C@H]1CCC=C[C@]21CO2	
InChI=1S/C7H10O2/c8-6-3-1-2-4-7(6)5-9-7/h2,4,6,8H,1,3,5H2	InChI=1S/C7H10O2/c8-6-3-1-2-4-7(6)5-9-7/h2,4,6,8H,1,3,5H2/t6-,7+/m0/s1
