18
gdb 73968	3.49999	1.83716	1.54368	1.0722	82.27	-0.1936	-0.0394	0.1541	905.8205	0.147765	-364.667559	-364.660584	-364.65964	-364.698647	28.628	
C	-0.1051659633	 1.3144480644	-0.3206722109	-0.469463
C	-0.0410775504	-0.0385892638	 0.3040681135	 0.250417
C	-1.0636052832	-0.924255484	 0.3757417636	-0.065455
C	-1.6193723921	-1.5615686227	-0.8821593735	-0.134468
C	-1.3404392072	-2.9649274195	-0.4407476987	-0.104944
C	-0.2429822679	-2.3616591515	-1.262166313	-0.028811
N	 0.7152604626	-2.2598457731	-0.1254683226	-0.114068
C	 1.2308393227	-0.896464838	 0.27147313	-0.250975
C	-0.5178162906	-2.3465651799	 0.7183367195	-0.053446
H	 0.521054746	 1.3620968249	-1.222949398	 0.121841
H	-1.1317242909	 1.5828273869	-0.5875151594	 0.126112
H	 0.2736120753	 2.0935150981	 0.3545747166	 0.131944
H	-2.265027427	-1.2019155478	-1.6732241262	 0.092824
H	-1.8886691103	-3.8920037902	-0.5292833384	 0.09549
H	 0.0574161518	-2.533884434	-2.2879559566	 0.095089
H	 1.9416181415	-0.4833368503	-0.453224957	 0.113117
H	 1.7707613971	-1.0379567097	 1.2159756777	 0.118673
H	-0.4294932043	-2.7139259596	 1.7405615535	 0.076124
114.7606	154.9775	259.0238	359.0331	462.2721	511.7874	539.2648	585.2273	654.5051	748.4132	763.5276	821.9171	833.0763	850.4925	878.7141	899.1392	904.2451	939.1782	979.9597	992.1682	994.2043	1015.5583	1034.2442	1067.4108	1109.5413	1121.6398	1149.856	1179.9408	1197.0007	1209.6601	1235.8901	1253.1963	1300.229	1347.6905	1401.9076	1456.5193	1469.3321	1487.633	1600.7357	3001.966	3026.0432	3046.1106	3075.5842	3101.2416	3117.4972	3194.0194	3197.1286	3218.0133
CC1=C2C3C4C3N(C1)C24	C[C]1[C]2[C@@H]3[C@H]4[C@@H]3N(C1)[C@@H]24	
InChI=1S/C8H9N/c1-3-2-9-7-4(3)5-6(7)8(5)9/h5-8H,2H2,1H3	InChI=1S/C8H9N/c1-3-2-9-7-4(3)5-6(7)8(5)9/h5-8H,2H2,1H3/t5-,6-,7+,8-/m1/s1
