20
gdb 97464	12.06698	0.42842	0.41802	2.8055	87.81	-0.2495	0.0236	0.2731	2552.4985	0.167292	-403.10977	-403.098779	-403.097835	-403.14784	37.299	
C	-0.0164450631	 1.4019529453	-0.0615504306	-0.314961
N	 0.0468377281	-0.040911071	-0.1552090446	-0.203559
C	-1.0288743847	-0.6770409947	-0.0208841752	 0.133055
O	-1.0476649729	-2.0233767816	-0.0959026183	-0.20621
C	-2.3229853061	-2.6405678658	 0.0713173346	-0.078034
C	-2.1287571644	-4.1446101052	-0.0469961294	-0.190279
C	-3.458160877	-4.9058248923	 0.1204332749	-0.358802
C	-3.296687609	-6.3501298556	 0.0108245979	 0.289469
C	-3.1403850845	-7.5378266485	-0.0830516082	-0.426311
H	 0.6383866409	 1.7474911169	 0.746635589	 0.128195
H	 0.3622127886	 1.8479928441	-0.9883896879	 0.128195
H	-1.0295483568	 1.7967884568	 0.12258147	 0.094132
H	-2.0131667536	-0.2158129706	 0.1624621755	 0.070145
H	-2.7417445984	-2.3796703617	 1.0542393892	 0.106635
H	-3.0207011922	-2.2778914325	-0.6975909166	 0.106632
H	-1.6890892675	-4.3752503024	-1.0220556088	 0.129681
H	-1.4130895488	-4.4759781987	 0.7114614754	 0.129682
H	-3.9027267774	-4.6627842611	 1.0948986292	 0.132629
H	-4.1780658077	-4.5623209168	-0.6345705908	 0.132629
H	-3.0119827936	-8.5886120448	-0.164529735	 0.197076
21.2882	64.4814	70.4812	93.1864	135.5231	158.7591	208.015	282.4926	304.0431	309.5592	345.5775	441.8863	547.4233	611.8085	621.1196	642.1713	756.3882	866.0287	954.3124	981.8585	1031.1632	1037.3355	1066.4019	1106.6569	1117.5061	1141.4152	1156.4323	1217.362	1249.2067	1279.2354	1304.0747	1316.3611	1372.8825	1398.5303	1436.8333	1450.5468	1476.2742	1480.5786	1498.5305	1505.0657	1522.0735	1782.7812	2242.5628	2963.3178	2976.7985	2993.1977	3013.3343	3025.8498	3041.513	3057.0833	3062.1152	3076.6282	3109.3848	3507.1869
CN=COCCCC#C	CN=COCCCC#C	
InChI=1S/C7H11NO/c1-3-4-5-6-9-7-8-2/h1,7H,4-6H2,2H3	InChI=1S/C7H11NO/c1-3-4-5-6-9-7-8-2/h1,7H,4-6H2,2H3
