15
gdb 11250	5.25053	1.32637	1.17442	1.9997	66.79	-0.2275	-0.0168	0.2106	993.2939	0.119666	-399.828396	-399.821	-399.820056	-399.860438	26.979	
O	-0.0281252661	 1.4558073689	-0.0550062793	-0.425254
C	 0.0285563062	 0.0365317285	 0.0450059554	 0.083331
C	-1.3697834777	-0.648712582	-0.0175614756	-0.213988
N	-1.4003220341	-1.2859485812	-1.3420480515	-0.0599
C	-2.4910041884	-1.8540522495	-1.93858203	 0.144579
O	-2.4782210787	-2.4075472494	-3.0168036678	-0.323417
C	-0.1128554825	-1.2713894516	-1.8859576088	 0.016695
C	 0.7526467336	-0.5999522552	-1.118956907	-0.218961
H	-0.1768110986	 1.6726642954	-0.982662087	 0.279793
H	 0.5001539841	-0.150707148	 1.0134397737	 0.102119
H	-1.4691711388	-1.4079785559	 0.7654954459	 0.126452
H	-2.1668201073	 0.0894060637	 0.0980230088	 0.133388
H	-3.4000164698	-1.7480403823	-1.3161242379	 0.079623
H	 0.0366776701	-1.7850870675	-2.8243766018	 0.160741
H	 1.7997656079	-0.4424640039	-1.3313916271	 0.114801
61.6417	159.4828	220.6327	261.3036	332.4466	362.1341	373.3797	517.2935	582.0762	757.4111	781.0636	802.8289	846.6741	907.4043	955.0576	962.1776	1025.2051	1026.0447	1082.4867	1113.7352	1203.7835	1237.6428	1266.6973	1295.8446	1313.8802	1339.1393	1420.8549	1435.7783	1444.0833	1499.4649	1663.7114	1792.4574	2952.0134	3043.557	3077.1745	3110.8482	3241.0255	3264.274	3794.63
OC1CN(C=O)C=C1	O[C@H]1CN(C=O)C=C1	
InChI=1S/C5H7NO2/c7-4-6-2-1-5(8)3-6/h1-2,4-5,8H,3H2	InChI=1S/C5H7NO2/c7-4-6-2-1-5(8)3-6/h1-2,4-5,8H,3H2/t5-/m1/s1
