19
gdb 124574	4.09556	0.88115	0.8431	3.8359	76.9	-0.296	-0.0412	0.2548	1435.8539	0.158531	-419.182565	-419.17359	-419.172646	-419.217308	32.54	
C	 0.3568177782	 1.3530462175	-0.2447490473	-0.382152
C	-0.0156965956	-0.1030282992	 0.0594464939	 0.034711
C	 0.605022846	-0.5702483337	 1.3816856106	-0.390309
C	-1.5499659464	-0.3055916192	 0.0955425514	-0.310742
C	-2.225371301	-0.0583605403	-1.2155853106	 0.334899
N	-3.0150841572	 0.9628616822	-1.4280369364	-0.14762
O	-3.4345371563	 0.8593640534	-2.7260541976	-0.14859
N	-2.9017362975	-0.2405468626	-3.3336945455	-0.060563
C	-2.1609496527	-0.8118427481	-2.4269069891	-0.106586
H	 1.4430752611	 1.4701541987	-0.3091291981	 0.115458
H	-0.0759810717	 1.6961628717	-1.1886578438	 0.127332
H	-0.0050079744	 2.0198294491	 0.5466563577	 0.119593
H	 0.3852062581	-0.735045205	-0.7457836522	 0.077186
H	 0.2231091317	 0.020837474	 2.2223035377	 0.118973
H	 0.3791714768	-1.6227016512	 1.5832379414	 0.111951
H	 1.6933727607	-0.4568540692	 1.3643851555	 0.117114
H	-1.7670770622	-1.3326320002	 0.4134457498	 0.115521
H	-1.9917975405	 0.3618126333	 0.8427018577	 0.128703
H	-1.618637097	-1.7188684913	-2.645620625	 0.145121
41.706	72.2338	112.4186	220.2361	247.7718	294.4461	315.863	341.6683	419.5267	429.0543	650.3353	682.0326	761.5947	827.2501	884.3626	896.8641	901.0678	930.3879	934.5678	955.6088	969.0687	1027.4238	1048.8359	1123.4093	1137.8927	1191.8663	1203.9444	1250.3908	1313.0452	1364.5145	1373.4306	1404.1184	1423.9251	1426.1954	1463.2282	1477.093	1486.1101	1494.7138	1505.0456	1508.6854	1612.1751	3002.7262	3027.3258	3032.2785	3035.8198	3086.3141	3094.4042	3100.3797	3104.8257	3113.4372	3265.2308
CC(C)CC1=NON=C1	CC(C)Cc1nonc1	
InChI=1S/C6H10N2O/c1-5(2)3-6-4-7-9-8-6/h4-5H,3H2,1-2H3	InChI=1S/C6H10N2O/c1-5(2)3-6-4-7-9-8-6/h4-5H,3H2,1-2H3
