18
gdb 85024	2.3368	1.73294	1.06395	0.4525	76.66	-0.2391	0.0081	0.2471	1133.162	0.148346	-435.313656	-435.3047	-435.303756	-435.34754	32.592	
C	-0.0389441235	 1.5538668163	-0.0203773737	-0.394567
C	 0.0500755284	 0.0371784735	 0.0239626783	 0.037086
O	 0.8192906431	-0.4661856106	-1.090911888	-0.261992
C	 1.8603579606	-1.2172394117	-0.6471608606	 0.467374
N	 2.7268555837	-1.8107966338	-1.3490605017	-0.592315
N	 1.8320538227	-1.2350681466	 0.7445094153	-0.136365
C	 2.8096034353	-1.9351917453	 1.5486073981	-0.360379
C	 0.7781678874	-0.4978605056	 1.2445379844	 0.359365
N	 0.422274398	-0.2608413733	 2.4403038341	-0.562846
H	 0.9600241549	 1.9984372375	 0.0001965034	 0.128696
H	-0.5524526537	 1.8813270921	-0.9277716006	 0.130024
H	-0.5937149838	 1.9015739473	 0.8544075469	 0.152512
H	-0.9494633729	-0.4076805646	-0.0350924908	 0.124301
H	 2.5495170162	-1.6610155482	-2.3391880563	 0.231681
H	 3.503236688	-2.4271153408	 0.8672670229	 0.183799
H	 3.3592013655	-1.23546118	 2.1878704443	 0.137846
H	 2.323092433	-2.6853926923	 2.1814334865	 0.138248
H	 1.0388430471	-0.7055610141	 3.1207181176	 0.217534
77.2631	111.259	135.3039	169.5087	223.9224	260.4789	293.4908	367.9913	405.9255	570.0042	606.2996	650.7108	698.6743	717.689	745.0432	795.0159	849.9635	902.2062	924.3083	1034.926	1061.4695	1093.1746	1107.5446	1136.003	1159.8483	1225.7468	1248.1174	1306.64	1361.2678	1364.9537	1403.5073	1429.4378	1480.7964	1486.0037	1493.3951	1493.9754	1515.9378	1745.7717	1794.944	3030.5967	3050.0178	3052.0951	3087.3333	3128.8581	3139.4639	3163.5928	3478.7035	3537.1914
CC1OC(=N)N(C)C1=N	C[C@H]1O[C]([NH])N(C)[C]1[NH]	
InChI=1S/C5H9N3O/c1-3-4(6)8(2)5(7)9-3/h3,6-7H,1-2H3	InChI=1S/C5H9N3O/c1-3-4(6)8(2)5(7)9-3/h3,6-7H,1-2H3/t3-/m1/s1
