12
gdb 18423	3.65293	1.9123	1.58018	3.9197	60.28	-0.2674	-0.0147	0.2527	797.169	0.082591	-381.292742	-381.286138	-381.285194	-381.323662	24.706	
O	-0.0446497545	 0.0766792372	-0.0244874398	-0.31088
C	 0.0422933873	 1.2560805713	 0.0308229358	 0.473816
O	-0.9921801115	 2.1807379481	 0.1827859282	-0.251252
C	-0.0591003645	 3.2669571236	-0.014465991	 0.080844
C	 0.9400476534	 3.3026259233	 1.1007071018	-0.246709
C	 0.6566072532	 2.8827961153	 2.4421401057	 0.330998
C	 0.4320608289	 2.541214652	 3.5717367748	-0.408602
C	 1.1069291095	 2.3214568796	-0.0905134479	-0.292572
H	-0.3717206655	 4.0885841027	-0.6430227955	 0.140133
H	 1.6427786337	 4.1300233546	 1.0146426149	 0.138042
H	 0.2238460488	 2.2319342859	 4.5662952321	 0.208219
H	 1.9968232612	 2.2957100463	-0.701510179	 0.137963
98.5556	158.3626	242.3469	363.4964	465.8123	502.8143	621.2361	642.4542	672.9399	712.7223	735.5932	806.581	821.2679	894.3645	924.0401	968.7546	994.5606	1047.0851	1069.7039	1090.4641	1149.4165	1259.3056	1306.4866	1406.3098	1957.06	2246.5835	3129.3622	3224.845	3238.2296	3502.5746
O=C1OC2C(C#C)C12	O=C1O[C@H]2[C@@H](C#C)[C@@H]12	
InChI=1S/C6H4O2/c1-2-3-4-5(3)8-6(4)7/h1,3-5H	InChI=1S/C6H4O2/c1-2-3-4-5(3)8-6(4)7/h1,3-5H/t3-,4+,5-/m0/s1
