19
gdb 90724	4.28287	1.14622	1.03893	2.0407	75.62	-0.2409	0.056	0.2969	1198.7669	0.158428	-422.972269	-422.964185	-422.96324	-423.005081	31.169	
C	-0.3281976614	 1.2675370812	-0.2313839208	-0.403453
C	 0.3021479121	-0.1011292686	-0.0736602241	 0.155404
O	 1.6608270599	-0.1266009283	-0.6027446186	-0.308103
C	 2.2020393075	-0.4904382624	 0.678710543	 0.01043
C	 0.7918693816	-0.4896816344	 1.3405216118	-0.09357
C	 0.9077479213	-2.0145283737	 1.615199294	-0.356264
C	 2.2642092146	-2.0099513241	 0.890875944	 0.444188
C	 2.9244436889	-3.0131367509	 0.0597955961	-0.255845
O	 3.4059822315	-2.6921389572	 1.3752340038	-0.27069
H	 0.2625157473	 2.0301018663	 0.2857395849	 0.122004
H	-0.3859331987	 1.538733347	-1.2900149016	 0.128758
H	-1.3431286686	 1.2711494512	 0.1815611259	 0.115447
H	-0.3171877178	-0.8676024325	-0.5602910748	 0.075226
H	 3.070975734	 0.1043579796	 0.9718533512	 0.086036
H	 0.4978412719	 0.161040188	 2.1625739991	 0.080635
H	 1.0258736219	-2.2462503175	 2.6772517162	 0.122681
H	 0.1202218051	-2.649524282	 1.1992571487	 0.106719
H	 2.4821431758	-4.0032102314	-0.0431977867	 0.115537
H	 3.5613698131	-2.6955754004	-0.764089232	 0.124861
58.1891	157.5797	222.1217	244.284	281.8774	330.6405	355.1223	404.6366	526.4218	569.4323	762.7446	782.0497	830.1952	848.1638	867.3674	888.4436	918.4845	941.8741	975.142	1000.7029	1031.2654	1075.1731	1102.1635	1118.4326	1127.6327	1147.0037	1154.3938	1167.8514	1197.6731	1224.8861	1253.2266	1268.2611	1292.1066	1326.5447	1386.8098	1406.5558	1432.3356	1470.6505	1483.4155	1492.5477	1533.9054	3004.0127	3032.8199	3054.1473	3081.9405	3084.5362	3105.6903	3107.9794	3113.5828	3125.1736	3173.5028
CC1OC2C1CC21CO1	C[C@H]1O[C@H]2[C@@H]1C[C@]12CO1	
InChI=1S/C7H10O2/c1-4-5-2-7(3-8-7)6(5)9-4/h4-6H,2-3H2,1H3	InChI=1S/C7H10O2/c1-4-5-2-7(3-8-7)6(5)9-4/h4-6H,2-3H2,1H3/t4-,5-,6+,7-/m1/s1
