16
gdb 20265	4.0481	2.79321	2.51445	1.3514	65.13	-0.2371	0.0981	0.3352	638.9521	0.134798	-346.580471	-346.575667	-346.574723	-346.609016	21.501	
C	-0.0549498075	 1.562008367	 0.0372886861	-0.236117
C	 1.4958060799	 1.461651095	 0.0200561553	-0.082416
C	 1.8482973121	 0.7060965152	 1.3092354137	-0.108495
C	 2.1722721436	-0.7152919509	 0.9016543457	 0.067816
O	 2.2664685991	-0.8018071348	-0.4982562407	-0.240771
C	 1.3187976384	 0.1670937852	-0.8548773977	 0.097801
C	 0.0150687198	 0.0097236269	 0.0101338508	-0.08242
C	 0.7547440448	-0.3662179568	 1.3018930696	-0.108491
H	-0.5253637019	 2.0358472956	 0.9021501872	 0.098167
H	-0.4606781323	 1.9821193499	-0.8880079696	 0.096737
H	 2.1389300595	 2.2891975239	-0.2765895951	 0.065403
H	 2.2381239396	 1.1807519259	 2.1989211434	 0.088374
H	 2.8259831679	-1.3856561245	 1.4430656668	 0.10383
H	 1.2276278495	 0.267438751	-1.9333846817	 0.086806
H	-0.8228934052	-0.6149923388	-0.2964428165	 0.065403
H	 0.2664734527	-0.7526227198	 2.1856840127	 0.088374
412.3416	477.9747	584.7714	681.2598	714.0435	729.2114	783.8388	801.4128	818.2143	833.7835	883.5897	886.8284	952.8796	955.2259	975.7934	995.1564	1002.5251	1043.7564	1054.5145	1058.4515	1066.7443	1086.1639	1106.5427	1117.499	1178.3755	1218.3187	1236.042	1241.8191	1251.2561	1274.3556	1299.4116	1347.6262	1384.0291	1499.3166	3055.3129	3113.865	3122.652	3124.0832	3162.5941	3207.5439	3208.7614	3221.5662
C1C2C3C4OC2C1C34	C1[C@H]2[C@@H]3[C@@H]4O[C@H]2[C@H]1[C@H]34	
InChI=1S/C7H8O/c1-2-4-5-3(1)6(2)8-7(4)5/h2-7H,1H2	InChI=1S/C7H8O/c1-2-4-5-3(1)6(2)8-7(4)5/h2-7H,1H2/t2-,3+,4-,5+,6+,7-
