16
gdb 45898	2.21002	1.98598	1.35556	2.7144	70.38	-0.2558	-0.0253	0.2306	966.8951	0.125006	-437.907463	-437.899772	-437.898828	-437.939913	28.808	
O	-0.3263266791	 0.0092797285	 0.4886229874	-0.283963
C	-0.1167043787	 1.1036816398	 0.0635119515	 0.403897
C	-1.1369643604	 2.0881814265	-0.456991734	-0.347677
C	-1.040340345	 3.4605454473	 0.1655314161	-0.043497
C	-0.4898764556	 3.7664369374	 1.3408133349	-0.059452
C	 0.1531356456	 2.800792217	 2.3158584109	-0.236461
N	 1.5793797349	 2.5622792655	 2.0455682731	-0.240703
C	 1.9450858727	 2.0208085863	 0.9727101163	 0.138251
O	 1.1880032663	 1.5806316564	-0.0902060616	-0.230404
H	-0.9652966334	 2.1824509088	-1.5375194498	 0.148728
H	-2.1306467241	 1.6459262604	-0.3317036559	 0.147392
H	-1.4616317972	 4.2624237171	-0.4355084107	 0.101909
H	-0.468954871	 4.8122367084	 1.6358535036	 0.104741
H	 0.0883832031	 3.2194403731	 3.3231245179	 0.115328
H	-0.3950250837	 1.8518344576	 2.3447377026	 0.14403
H	 2.9986132856	 1.88284281	 0.7430102179	 0.137881
89.368	100.5903	210.5947	251.3937	301.1084	395.0345	437.3888	509.9133	573.4325	615.764	717.1618	738.0829	773.5142	819.9146	893.0387	927.155	962.1064	980.0969	1000.6203	1009.65	1065.2893	1087.9456	1129.96	1222.4954	1240.5995	1271.1024	1340.8223	1351.6986	1404.951	1416.149	1451.5037	1517.083	1720.0121	1737.8685	1867.8881	3031.8644	3041.1451	3082.1957	3086.3031	3149.6525	3172.6747	3176.0979
O=C1CC=CCN=CO1	O=C1CC=CCN=CO1	
InChI=1S/C6H7NO2/c8-6-3-1-2-4-7-5-9-6/h1-2,5H,3-4H2/b2-1-,7-5-	InChI=1S/C6H7NO2/c8-6-3-1-2-4-7-5-9-6/h1-2,5H,3-4H2/b2-1-,7-5-
