14
gdb 16048	3.70431	1.77878	1.49781	1.6502	65.28	-0.2372	0.0049	0.2422	853.5772	0.105736	-382.450103	-382.442916	-382.441972	-382.481245	27.546	
O	-0.0231956953	 1.3960702119	 0.0446054914	-0.430568
C	-0.0613865407	 0.0098447843	 0.0532090755	 0.077984
C	-1.3479352112	-0.7878891074	 0.0756551441	-0.228131
C	-2.3683823471	-0.0769010079	-0.7960837581	-0.108
O	-1.4163018415	 0.046461687	-1.8964512111	-0.337071
C	-0.4521130739	-0.7566515826	-1.1808140413	 0.223196
C	 0.305168266	-1.7315715774	-1.8778844929	 0.214542
C	 0.9617605532	-2.5554625807	-2.4592474402	-0.388897
H	-0.3743880161	 1.6699422709	-0.8146007999	 0.300733
H	 0.7471482981	-0.4253307517	 0.6323807205	 0.122128
H	-1.5407223627	-1.600232059	 0.7631923128	 0.115953
H	-3.2121293832	-0.7038564855	-1.0985889858	 0.124515
H	-2.7244492143	 0.8989821435	-0.4496980763	 0.118371
H	 1.5394043888	-3.2816816154	-2.9758280187	 0.195246
136.6245	163.3548	228.353	273.4063	407.9994	444.3687	484.4618	534.6007	558.529	577.9766	691.7252	704.1987	797.9964	814.204	898.0584	966.5895	972.4598	989.0677	1022.3718	1093.3295	1103.4338	1163.4222	1168.2251	1242.5124	1305.06	1327.8996	1373.3704	1455.7541	1513.8147	2232.6046	3043.2637	3097.0414	3172.1819	3209.3157	3500.8131	3744.3301
OC1C2COC12C#C	O[C@H]1[C@H]2CO[C@@]12C#C	
InChI=1S/C6H6O2/c1-2-6-4(3-8-6)5(6)7/h1,4-5,7H,3H2	InChI=1S/C6H6O2/c1-2-6-4(3-8-6)5(6)7/h1,4-5,7H,3H2/t4-,5+,6-/m1/s1
