23
gdb 112859	2.83512	1.08149	0.84424	1.3037	89.17	-0.2226	0.0352	0.2578	1446.919	0.205065	-388.311733	-388.301636	-388.300692	-388.346605	37.772	
C	-0.0022951713	 1.6257960446	-0.0746579947	-0.394545
C	 0.0589937714	 0.0983743212	 0.0386926941	-0.007694
C	 0.7756072966	-0.5935042215	-1.1486633212	-0.248495
C	 1.5328558797	-1.8047567775	-0.5507852912	-0.064067
C	 2.8541673204	-2.064807523	-1.2724660275	-0.092781
O	 3.3875453169	-3.305471529	-0.8289297453	-0.420808
C	 1.6455793202	-1.4435740281	 0.9254134277	 0.31988
C	 2.4935029601	-2.2200440754	 1.8852360387	-0.477748
C	 0.845232466	-0.4168840099	 1.221681536	-0.177845
H	 1.0051900925	 2.0528807042	-0.1334544419	 0.111387
H	-0.5529144651	 1.9347678991	-0.9700017344	 0.109317
H	-0.5034818152	 2.0692221457	 0.7926083006	 0.10983
H	-0.9765236278	-0.2713402298	 0.1087784817	 0.073411
H	 0.0940456213	-0.8757095815	-1.956158558	 0.09357
H	 1.5051728521	 0.1082127959	-1.5749822267	 0.09196
H	 0.9396282722	-2.726464228	-0.6520524473	 0.082031
H	 2.6704712406	-2.0838272963	-2.3591326008	 0.085075
H	 3.5503247345	-1.2338751189	-1.0715473595	 0.083669
H	 4.2334334658	-3.4433187276	-1.2649415049	 0.285612
H	 2.4224639302	-1.8090805718	 2.8964560497	 0.107856
H	 2.1862580933	-3.2725023492	 1.9156791146	 0.12759
H	 3.5447892284	-2.2282310328	 1.5801353981	 0.126597
H	 0.7210805571	-0.0050504005	 2.2195022921	 0.076198
59.9276	135.4579	138.2726	187.6658	204.022	235.5011	263.6962	280.2029	310.3826	346.2339	406.1673	455.3911	584.668	606.3136	612.3556	770.9896	854.8813	865.1086	905.6073	940.1804	982.3896	1014.2387	1025.2178	1048.0507	1059.3866	1071.9436	1110.1079	1119.0394	1136.2713	1192.7145	1219.0001	1246.1023	1256.0522	1275.3932	1313.0763	1320.5181	1329.6314	1358.262	1378.8005	1407.2749	1419.1246	1452.089	1475.464	1481.1292	1488.9163	1497.2669	1499.4835	1519.8572	1717.0612	2957.7498	2967.8572	2980.6394	2997.5811	3017.7257	3024.53	3028.492	3082.0341	3084.6085	3093.1392	3094.8222	3110.6221	3167.11	3829.5475
CC1CC(CO)C(C)=C1	C[C@H]1C[C@@H](CO)C(=C1)C	
InChI=1S/C8H14O/c1-6-3-7(2)8(4-6)5-9/h3,6,8-9H,4-5H2,1-2H3	InChI=1S/C8H14O/c1-6-3-7(2)8(4-6)5-9/h3,6,8-9H,4-5H2,1-2H3/t6-,8+/m1/s1
