15
gdb 22872	3.19174	1.25536	0.93137	3.488	65.49	-0.2546	-0.0195	0.2351	1172.0388	0.112444	-491.072206	-491.063799	-491.062855	-491.105726	30.846	
O	-0.1856727113	 1.3308659671	-0.1366098938	-0.390204
N	 0.005958364	-0.05723877	-0.1345660205	-0.192042
C	-1.098258986	-0.6666738471	 0.0017781639	 0.370307
C	-2.4741103031	-0.0422734808	 0.1443674983	-0.250246
N	-3.355776966	-1.1989369399	 0.0692646652	-0.339311
C	-2.7296715608	-2.3898081541	-0.133104463	 0.405651
O	-3.2300677277	-3.455456908	-0.4250329192	-0.388785
C	-1.2171954627	-2.1709120587	 0.0437541961	-0.065962
O	-0.491545691	-2.8490623811	-0.9467513596	-0.42277
H	 0.7080587307	 1.6630507473	-0.2751508212	 0.315242
H	-2.5704778128	 0.4981564687	 1.0945551242	 0.141766
H	-2.657489484	 0.6780854066	-0.6616021136	 0.148025
H	-4.3533765196	-1.1183577993	-0.0531783317	 0.260254
H	-0.9448954667	-2.5302562322	 1.0527272482	 0.111098
H	-1.0137539329	-3.6405149086	-1.1453126833	 0.296978
45.5318	161.6068	173.2035	219.0192	253.4128	359.7788	397.1268	416.4878	452.1495	512.4157	541.2054	558.5358	685.4916	700.7583	748.6322	844.2309	896.4354	993.1793	1021.9253	1063.8084	1129.7205	1193.5033	1205.0668	1234.9956	1268.0936	1327.0875	1359.1608	1395.4269	1434.1779	1447.0865	1512.2987	1767.0495	1834.9856	2939.9792	3025.2651	3057.2052	3633.1576	3731.3147	3816.8768
ON=C1CNC(=O)C1O	ON=C1CNC(=O)[C@H]1O	
InChI=1S/C4H6N2O3/c7-3-2(6-9)1-5-4(3)8/h3,7,9H,1H2,(H,5,8)	InChI=1S/C4H6N2O3/c7-3-2(6-9)1-5-4(3)8/h3,7,9H,1H2,(H,5,8)/t3-/m0/s1
