15
gdb 32057	3.81209	1.13287	0.87814	7.0312	71.58	-0.2323	-0.0524	0.1799	1231.7918	0.113953	-454.002541	-453.994478	-453.993534	-454.036145	28.975	
O	 0.0647216767	 1.4233248598	 0.0063127057	-0.403049
C	 0.01580341	 0.0173516399	 0.0021342702	-0.172165
C	-1.4228546895	-0.4265653462	 0.0130511981	 0.383312
C	-2.4996208999	 0.4093742544	 0.0234046479	-0.227494
C	-3.7786986685	-0.208994086	 0.0324747816	 0.033199
N	-4.0129807194	-1.4937945695	 0.0317177811	-0.322726
C	-2.9386529902	-2.3688150524	 0.0212375596	 0.437582
O	-3.0147473898	-3.5772353865	 0.0193377376	-0.384341
N	-1.651635705	-1.7622437748	 0.0121983863	-0.400919
H	 0.9861602664	 1.696905765	-0.0015288558	 0.30268
H	 0.5048179342	-0.4108012781	-0.8895799601	 0.121178
H	 0.5201688641	-0.4166283094	 0.8824054509	 0.121109
H	-2.371443003	 1.4802646742	 0.0245697377	 0.129663
H	-4.6609457741	 0.4328047994	 0.0409302678	 0.121022
H	-0.886266642	-2.4236748398	 0.0047815217	 0.26095
40.8055	127.5173	167.7459	204.0178	209.24	372.7937	438.5423	499.3098	577.2685	587.2253	623.4145	697.3666	779.7885	809.7584	821.8189	891.4474	1015.4233	1018.2498	1042.2488	1078.1663	1122.4578	1140.7127	1198.2665	1237.0389	1257.5702	1361.7884	1414.1994	1456.1121	1484.2813	1507.9042	1599.5494	1672.1337	1814.1394	2955.4872	2977.6776	3119.9039	3262.7354	3589.3099	3846.0333
OCC1=CC=NC(=O)N1	OCc1ccnc(=O)[nH]1	
InChI=1S/C5H6N2O2/c8-3-4-1-2-6-5(9)7-4/h1-2,8H,3H2,(H,6,7,9)	InChI=1S/C5H6N2O2/c8-3-4-1-2-6-5(9)7-4/h1-2,8H,3H2,(H,6,7,9)
