22
gdb 119652	3.76423	0.99695	0.9108	2.005	86.53	-0.2246	0.0845	0.309	1397.9911	0.194263	-367.122091	-367.113458	-367.112514	-367.155979	33.225	
C	-0.0426927103	 1.5845200879	 0.0140999141	-0.380026
C	-0.0367293149	 0.0539025576	 0.0157507805	-0.161794
C	 0.7787956939	-0.5424414262	 1.1722910876	-0.33975
C	 0.8002516206	-2.0514241206	 1.1736944449	 0.344378
C	 1.3216802524	-3.0392961128	 0.1284345944	-0.229686
N	 0.826515902	-4.0125999906	 1.1908542807	-0.163107
C	 1.2965807163	-3.0269274871	 2.2940494283	-0.054073
C	-0.0610829257	-3.0998681744	 2.9979902685	-0.261245
C	-0.3590843051	-3.059649648	 1.496729604	-0.037462
H	 0.9737042568	 1.9838822409	-0.0753409827	 0.114687
H	-0.6308698796	 1.9809102596	-0.8194125379	 0.112219
H	-0.471121371	 1.9798146235	 0.9419687254	 0.114161
H	-1.0674858793	-0.3188090318	 0.0725477396	 0.098604
H	 0.3660690078	-0.3126860452	-0.9370231333	 0.100658
H	 1.8118584985	-0.1704948978	 1.1208065697	 0.097061
H	 0.3742150398	-0.1838657499	 2.129162972	 0.095611
H	 0.7850793648	-3.1247720884	-0.8230671787	 0.095899
H	 2.4037933973	-3.090678168	-0.0388617812	 0.093989
H	 2.3056491274	-3.1060681019	 2.70496179	 0.076941
H	-0.2870787272	-4.0408446417	 3.5064109677	 0.107417
H	-0.3641369285	-2.2350435503	 3.5930014159	 0.097825
H	-1.3065145058	-3.1795463546	 0.9668089103	 0.077691
65.9059	72.3831	124.9615	240.2053	264.3498	312.9741	338.5961	433.7331	466.4996	661.2313	716.6477	742.1372	785.9565	842.9103	862.0477	873.2589	894.5498	910.4321	919.0249	924.95	988.8973	1011.6163	1031.5337	1046.2664	1068.1704	1081.9815	1108.6914	1140.7097	1143.1991	1169.0637	1196.6953	1208.7315	1224.3119	1249.2409	1273.8452	1294.394	1308.488	1330.8669	1352.2611	1392.8792	1410.5654	1473.7775	1488.4776	1491.5214	1498.5647	1508.7754	1518.9866	3001.696	3020.7808	3025.7406	3028.959	3030.6288	3056.6227	3057.6962	3082.6188	3086.8979	3094.44	3096.1072	3101.8712	3122.427
CCCC12CN3C1CC23	CCC[C@@]12CN3[C@@H]1C[C@@H]23	
InChI=1S/C8H13N/c1-2-3-8-5-9-6(8)4-7(8)9/h6-7H,2-5H2,1H3	InChI=1S/C8H13N/c1-2-3-8-5-9-6(8)4-7(8)9/h6-7H,2-5H2,1H3/t6-,7+,8-
