23
gdb 118993	3.29231	0.86576	0.85725	1.1205	81.08	-0.2458	0.0728	0.3186	1487.2713	0.205603	-425.426873	-425.416802	-425.415858	-425.462642	36.943	
C	 0.1011730676	 1.5460610638	 0.0508829121	-0.437
C	-0.0212906255	 0.0115314822	 0.0301572807	 0.300484
C	-1.4855055441	-0.4577402126	 0.0270842797	-0.229884
C	-2.3091399441	-0.0630010747	 1.2500996473	-0.090853
O	-3.5989750805	-0.6366730399	 1.0876554294	-0.418321
C	 0.7584764432	-0.5590058526	-1.1917043615	-0.286346
C	 2.1465987112	-0.9445734411	-0.6213390881	-0.075477
O	 2.1529009898	-0.5485113989	 0.7469645766	-0.251483
C	 0.8077659727	-0.5880561367	 1.1883027563	-0.111043
H	 1.1544856806	 1.8413471186	 0.0359609487	 0.126883
H	-0.3902910266	 1.9908665074	-0.8211850751	 0.110605
H	-0.3492547425	 1.9821474166	 0.9482599832	 0.11087
H	-1.9957811141	-0.0732283373	-0.864546233	 0.103501
H	-1.5142565568	-1.5518470905	-0.0486561452	 0.102429
H	-1.826065874	-0.4337364292	 2.1690258568	 0.087931
H	-2.3746708142	 1.032041121	 1.3352070804	 0.088743
H	-4.1403507797	-0.3762595203	 1.8384078834	 0.285246
H	 0.250559325	-1.4365266437	-1.601332352	 0.100579
H	 0.8321878426	 0.1780863984	-1.995587191	 0.103676
H	 2.3143424334	-2.0292941375	-0.7030611233	 0.090974
H	 2.9798047324	-0.4374924156	-1.1161060988	 0.10661
H	 0.7486915463	-0.0183915727	 2.1200371773	 0.102862
H	 0.4885231373	-1.6254584448	 1.3934006163	 0.079013
39.3573	81.9735	96.4138	166.209	208.7973	259.9486	268.7591	321.5506	336.3961	340.5197	417.1993	428.5871	662.7279	692.5396	786.8373	794.0614	820.6435	922.7646	942.7459	965.9952	980.7212	989.9905	1005.5145	1020.0446	1055.8567	1075.1131	1111.1213	1178.6092	1190.7291	1208.3911	1239.0604	1242.818	1259.688	1268.1798	1304.2998	1306.4402	1342.883	1350.2372	1361.2918	1393.8	1415.0989	1461.3735	1484.3162	1495.0612	1499.0209	1504.0306	1511.9188	1527.6569	1529.4685	2944.6495	2965.9902	2985.3822	2999.6301	3025.5533	3032.5608	3058.2763	3067.8881	3075.8266	3084.5901	3098.0157	3104.0438	3109.9568	3830.2379
CC1(CCO)CCOC1	C[C@@]1(CCO)CCOC1	
InChI=1S/C7H14O2/c1-7(2-4-8)3-5-9-6-7/h8H,2-6H2,1H3	InChI=1S/C7H14O2/c1-7(2-4-8)3-5-9-6-7/h8H,2-6H2,1H3/t7-/m1/s1
