21
gdb 62176	4.88768	0.57012	0.52635	0.2195	91.68	-0.2574	0.051	0.3085	2058.6156	0.178783	-349.895839	-349.884894	-349.88395	-349.932596	39.533	
C	-0.062579026	 1.5881194648	 0.1709546424	-0.386673
C	 0.0339449124	 0.0532334532	 0.0505967161	-0.168909
C	 0.7097364036	-0.4095244537	-1.2640517977	-0.175153
C	-0.0673714692	-0.0424034164	-2.5315986506	-0.187522
C	 0.5931438933	-0.6198684726	-3.8007790216	-0.36072
C	-0.1249027569	-0.2763611116	-5.0220669942	 0.291094
C	-0.7370619087	 0.0216994256	-6.0127164177	-0.434119
C	 0.7403608454	-0.5067934615	 1.2025968518	 0.317788
C	 1.3422050823	-0.9582508713	 2.1405535884	-0.46063
H	 0.9334084144	 2.0399014984	 0.1278134728	 0.124909
H	-0.6686535155	 2.0072202553	-0.6364108085	 0.119981
H	-0.5202760197	 1.8706364406	 1.122240772	 0.127682
H	-0.9888879894	-0.3508252645	 0.056568408	 0.105476
H	 1.7214318288	 0.014095733	-1.3070155124	 0.105851
H	 0.8349659921	-1.4978211272	-1.2188177156	 0.107803
H	-1.0949701782	-0.4199068522	-2.4644892865	 0.109635
H	-0.1419736077	 1.0440644608	-2.6427847719	 0.1156
H	 1.627206086	-0.2570764859	-3.8706187381	 0.13087
H	 0.6624310891	-1.7120514873	-3.711992643	 0.130879
H	-1.2688480096	 0.2780386288	-6.8950936643	 0.193344
H	 1.8621346537	-1.3622531864	 2.9735079706	 0.192814
43.8435	80.5181	86.0986	122.8752	147.0469	203.5893	245.2846	292.1279	301.0878	349.4525	381.9566	504.5722	534.9506	567.2	616.652	626.9307	634.3901	636.791	740.7595	807.8682	848.6805	922.4125	962.9145	987.9439	1019.4021	1053.0333	1087.3762	1117.5453	1139.6837	1205.2055	1253.5019	1293.1461	1322.5482	1324.562	1344.2142	1365.9293	1392.2711	1409.5451	1473.3627	1481.5534	1495.6127	1500.8743	1505.3251	2233.8586	2239.054	2998.8032	3015.1159	3023.8036	3037.9763	3043.8106	3045.8649	3060.5104	3091.4655	3117.8887	3125.0914	3505.2841	3507.4792
CC(CCCC#C)C#C	C[C@@H](CCCC#C)C#C	
InChI=1S/C9H12/c1-4-6-7-8-9(3)5-2/h1-2,9H,6-8H2,3H3	InChI=1S/C9H12/c1-4-6-7-8-9(3)5-2/h1-2,9H,6-8H2,3H3/t9-/m1/s1
