18
gdb 101063	2.28021	1.32699	0.93969	2.5734	72.8	-0.288	-0.0047	0.2833	1267.0397	0.145563	-439.075073	-439.065545	-439.064601	-439.109599	34.592	
C	 0.1235848628	 1.5427980366	 0.1679925262	-0.387983
C	 0.1711953048	 0.0151290173	 0.098562063	-0.205385
C	 0.5939901635	-0.4954780472	-1.2863404683	 0.028744
O	 1.8649413715	-0.0128909506	-1.6718881115	-0.42689
C	 0.5993045783	-2.0319606441	-1.3456969432	 0.246487
C	 1.5324527107	-2.7501554179	-2.2332707749	-0.212764
O	 1.7930144358	-2.6352862604	-0.8286255106	-0.269498
C	-0.6404195725	-2.6917693909	-0.9775966766	 0.262605
N	-1.6503392635	-3.1818368811	-0.7021258646	-0.331952
H	 1.0911884493	 1.974261608	-0.100155575	 0.13125
H	-0.6245359066	 1.9446858945	-0.5241212371	 0.119301
H	-0.1382920167	 1.8790853014	 1.1749724716	 0.118461
H	 0.8772102351	-0.3790701239	 0.842078942	 0.106203
H	-0.8089280087	-0.4064668345	 0.3489480137	 0.127682
H	-0.1089216988	-0.1282899629	-2.0441136199	 0.111221
H	 2.5055133302	-0.4115188702	-1.0676779537	 0.293089
H	 1.2780471484	-3.7507463876	-2.5738028658	 0.14225
H	 2.1768246064	-2.1553310364	-2.8736083553	 0.14718
73.3998	94.9597	135.6754	189.7694	217.0045	248.234	275.0139	319.0262	390.9473	415.3636	475.2524	515.9624	570.5013	595.9768	739.6116	787.4637	863.4138	886.3588	928.9831	969.3892	1000.1297	1076.3375	1111.0327	1129.5053	1141.6328	1178.4335	1203.356	1263.8864	1300.4511	1347.1871	1362.1954	1385.4806	1409.5156	1429.5331	1484.1609	1496.471	1503.327	1508.6203	2356.676	3021.0819	3040.8908	3047.3203	3072.3488	3107.9407	3112.0821	3126.8548	3216.8442	3769.0636
CCC(O)C1(CO1)C#N	CC[C@@H](O)[C@]1(CO1)C#N	
InChI=1S/C6H9NO2/c1-2-5(8)6(3-7)4-9-6/h5,8H,2,4H2,1H3	InChI=1S/C6H9NO2/c1-2-5(8)6(3-7)4-9-6/h5,8H,2,4H2,1H3/t5-,6-/m1/s1
