20
gdb 92051	2.82299	1.51196	1.07932	3.0304	80.05	-0.2487	0.0317	0.2804	1149.8764	0.17243	-403.157799	-403.149602	-403.148658	-403.190561	32.192	
C	-0.3116014597	 1.5051317922	-0.0126544155	-0.391721
C	 0.092899961	 0.0312442804	 0.003824918	-0.068138
C	 0.9476241906	-0.3769530621	-1.2150417153	-0.238668
C	 1.1961477837	-1.8757487554	-1.1689255622	-0.059551
C	 2.5457103961	-2.4462720797	-0.7878419623	-0.312509
C	 1.4215584815	-2.4314546189	 0.207556478	 0.102019
O	 1.520126853	-1.5276193604	 1.2844289297	-0.254887
C	 0.8278966064	-0.3412546309	 1.2770574493	 0.402793
N	 0.846501538	 0.4110973685	 2.294648589	-0.517922
H	 0.571312929	 2.1509459019	 0.0000386905	 0.123767
H	-0.8892269588	 1.7252984949	-0.9164666712	 0.10061
H	-0.9112940907	 1.7566137641	 0.8630054534	 0.140182
H	-0.8187911234	-0.584305018	-0.0278325191	 0.097692
H	 0.4295789092	-0.1006392316	-2.137995259	 0.107072
H	 1.8887387869	 0.1849445067	-1.2042277399	 0.110607
H	 0.5795916509	-2.4767047136	-1.8299462641	 0.095778
H	 2.8473334512	-3.3990412224	-1.208387483	 0.117219
H	 3.3548783061	-1.7443701512	-0.6151907597	 0.125623
H	 0.9589730342	-3.3663159625	 0.5083189446	 0.103145
H	 1.3953845248	-0.023464812	 3.0396085587	 0.216889
76.8616	117.8342	216.4475	278.8151	305.854	331.3179	407.1729	440.587	468.8284	529.3846	649.7789	695.5313	739.6396	820.9113	825.3968	884.3911	898.7079	914.5229	928.4425	1000.9924	1024.7531	1033.134	1052.7014	1096.3634	1112.0428	1129.3007	1131.6255	1161.1217	1180.1659	1230.6494	1245.6072	1276.5693	1305.2695	1347.1036	1374.1851	1388.2506	1410.7499	1414.8697	1475.6946	1486.187	1494.2856	1499.327	1745.5052	2994.1948	3038.7819	3043.9409	3084.9258	3109.8776	3133.4191	3143.088	3148.8932	3158.8483	3224.3709	3460.8658
CC1CC2CC2OC1=N	C[C@H]1C[C@H]2C[C@H]2O[C]1[NH]	
InChI=1S/C7H11NO/c1-4-2-5-3-6(5)9-7(4)8/h4-6,8H,2-3H2,1H3	InChI=1S/C7H11NO/c1-4-2-5-3-6(5)9-7(4)8/h4-6,8H,2-3H2,1H3/t4-,5-,6+/m0/s1
