21
gdb 89878	3.47137	0.88776	0.81014	3.6065	85.89	-0.2421	-0.0144	0.2277	1495.6321	0.181112	-387.084963	-387.075759	-387.074815	-387.11932	34.65	
C	-1.1076826202	 0.9886889879	-0.0591392749	-0.40853
C	 0.0036717434	-0.0415490769	 0.0611354355	 0.058549
C	 1.2506990214	 0.0984002337	-0.8665747854	-0.314072
C	 2.1256321269	-0.2375057159	 0.3505062578	 0.355369
C	 3.089145513	-1.3607589491	 0.4522273251	-0.356145
C	 3.5921144663	 0.076967075	 0.6023482195	-0.173307
C	 4.399881572	 0.6484176899	-0.4929697532	 0.169002
O	 5.2718692324	 1.4720230005	-0.3562225572	-0.274203
C	 0.9521642827	 0.0295406849	 1.2991899947	-0.310817
H	-0.7107296893	 2.0065948856	 0.0277449009	 0.115281
H	-1.6186612362	 0.9113762178	-1.0252703916	 0.117219
H	-1.8595818029	 0.8556409812	 0.7266331685	 0.116915
H	-0.4099771657	-1.0513606762	-0.0278286483	 0.077045
H	 1.3130349296	-0.5690615601	-1.7301268793	 0.102504
H	 1.3846914061	 1.1298867062	-1.2099752034	 0.107554
H	 3.0991434578	-1.9729391382	 1.347965991	 0.125301
H	 3.3672908252	-1.8861283186	-0.4575243123	 0.121258
H	 3.8648880325	 0.4197653082	 1.5954007602	 0.102306
H	 4.139070863	 0.251049601	-1.5034221123	 0.060939
H	 0.9853418535	 1.0373708745	 1.7272495924	 0.105899
H	 0.7869662289	-0.6898346516	 2.1058796724	 0.101933
52.012	110.1248	139.4603	199.6717	234.395	288.4764	333.9952	365.3126	386.7663	435.5875	460.8321	560.0441	714.737	824.8556	848.9651	866.8246	877.586	893.1314	919.416	948.0517	972.9839	1025.7101	1045.9962	1068.851	1081.7543	1092.2204	1131.2834	1157.2381	1176.0225	1210.8383	1230.8594	1237.8116	1262.3671	1286.8675	1306.289	1366.6608	1396.0668	1412.494	1445.3713	1474.3717	1485.309	1493.6452	1495.9956	1499.2651	1815.0777	2840.4546	3023.346	3039.155	3043.1229	3047.7978	3090.6674	3092.4088	3096.037	3101.4786	3118.1695	3167.5517	3207.2776
CC1CC2(CC2C=O)C1	C[C@H]1C[C@]2(C[C@H]2C=O)C1	
InChI=1S/C8H12O/c1-6-2-8(3-6)4-7(8)5-9/h5-7H,2-4H2,1H3	InChI=1S/C8H12O/c1-6-2-8(3-6)4-7(8)5-9/h5-7H,2-4H2,1H3/t6-,7-,8+/m0/s1
