18
gdb 87601	3.29978	1.37901	1.26938	0.7864	78.58	-0.2076	0.0132	0.2208	1053.2076	0.148072	-401.902869	-401.89527	-401.894326	-401.934616	30.667	
O	-0.0688213107	 1.4442077865	 0.004269511	-0.424318
C	-0.0356640766	 0.0460092877	 0.026881186	 0.046677
C	-0.5267142786	-0.6952059826	 1.2438856469	-0.383451
C	-1.361544177	-0.6556211944	-0.0292048104	 0.320972
C	-2.6670819812	 0.0521347675	-0.0984118037	-0.143579
C	-3.5428551314	-0.6852852054	-0.7860957584	-0.103515
C	-2.8776415179	-1.9175656309	-1.2973982779	-0.082315
C	-1.7399639618	-1.6853299832	-2.2354410606	-0.242047
N	-1.4759024488	-1.8932459588	-0.802021087	-0.154342
H	 0.6191220573	 1.764386332	 0.5976515091	 0.288947
H	 0.7728193479	-0.410196388	-0.5445883178	 0.095899
H	-0.0616989444	-1.6439611704	 1.487600528	 0.123657
H	-0.8753446406	-0.1035728477	 2.083983642	 0.11314
H	-2.8320432318	 1.0299326794	 0.3329943757	 0.113256
H	-4.578356368	-0.4389906793	-0.9829460842	 0.102598
H	-3.3974534294	-2.8721007456	-1.2879078367	 0.094243
H	-1.3817404854	-2.4911980498	-2.8701797585	 0.11254
H	-1.6313070016	-0.6832606269	-2.6426118933	 0.121639
130.4088	156.6935	227.2223	301.8066	341.8743	419.8336	424.8974	466.0632	555.5595	636.2186	724.8204	759.0692	787.0424	802.5342	844.2042	874.626	899.5696	930.8856	948.0701	984.3809	1009.7909	1031.6452	1049.0179	1060.0687	1093.5578	1104.272	1120.2122	1155.681	1172.9984	1208.0022	1267.6841	1282.0833	1305.6551	1351.982	1381.4152	1414.5999	1477.1064	1491.6991	1654.0045	3100.8834	3103.6711	3130.0597	3139.9009	3196.1903	3211.2084	3228.8057	3238.1355	3799.8586
OC1CC11C=CC2CN12	O[C@H]1C[C@]21C=C[C@H]1CN21	
InChI=1S/C7H9NO/c9-6-3-7(6)2-1-5-4-8(5)7/h1-2,5-6,9H,3-4H2	InChI=1S/C7H9NO/c9-6-3-7(6)2-1-5-4-8(5)7/h1-2,5-6,9H,3-4H2/t5-,6-,7-,8?/m0/s1
