17
gdb 18898	3.13646	2.59445	1.80334	2.0154	71.04	-0.2046	0.074	0.2786	793.6355	0.141135	-326.614951	-326.607787	-326.606842	-326.645781	27.971	
C	 0.0645357807	 1.542280607	-0.0694748872	-0.526156
C	-0.0065484859	 0.0519985565	-0.0299692763	 0.292742
C	 0.8490933502	-0.9973377688	-0.7594433453	-0.171334
C	 0.7766990022	-0.97480008	 0.7477672787	-0.066948
N	-0.3896080315	-1.9594752494	 0.7760420256	-0.221777
C	-0.3522965982	-1.9702358441	-0.7345616964	-0.112879
C	-1.1943636087	-0.9665969463	-0.0277537018	 0.300202
C	-2.6692152579	-0.8097397367	 0.1189154388	-0.525119
H	 1.1073098394	 1.8771203603	-0.0359179367	 0.125351
H	-0.3817874436	 1.9457340462	-0.9859989067	 0.122804
H	-0.4542294176	 1.9948561237	 0.7837827671	 0.124882
H	 1.6779282585	-0.8474873775	-1.437106228	 0.091205
H	 1.5337644867	-0.8903371761	 1.5183572487	 0.094319
H	-0.611811228	-2.8510973962	-1.311204953	 0.090468
H	-3.1422087892	-1.7948455753	 0.1832870748	 0.135239
H	-2.9209016197	-0.2558613823	 1.0303394175	 0.125916
H	-3.1011912574	-0.2766991809	-0.7355277499	 0.121084
186.577	191.867	204.9052	232.5773	290.7212	351.7747	585.8363	621.7036	652.965	746.3985	765.01	810.8458	842.0378	860.7355	877.726	901.1274	935.4242	978.5904	1004.2086	1020.8817	1049.8278	1086.9524	1105.3736	1137.9793	1182.1891	1206.8378	1250.4144	1277.5691	1391.7204	1407.8785	1426.5314	1447.5675	1477.4458	1482.8869	1490.6588	1499.5741	3018.4762	3026.0746	3077.0416	3088.7813	3089.3262	3105.6782	3169.7527	3178.8123	3213.8202
CC12C3C1N1C3C21C	C[C@@]12[C@H]3[C@@H]1N1[C@H]3[C@]21C	
InChI=1S/C7H9N/c1-6-3-4(6)8-5(3)7(6,8)2/h3-5H,1-2H3	InChI=1S/C7H9N/c1-6-3-4(6)8-5(3)7(6,8)2/h3-5H,1-2H3/t3-,4-,5+,6+,7+,8?/m0/s1
