14
gdb 25829	3.52937	0.81124	0.66063	4.4405	65.41	-0.2024	0.0503	0.2527	1557.4249	0.100822	-470.052745	-470.043318	-470.042373	-470.089688	31.235	
N	 0.2809795889	 1.4219017567	 0.1537150178	-0.59766
C	-0.1691869868	 0.1029835051	 0.028161031	 0.308514
C	-1.4082120972	-0.4527764249	-0.0105692204	-0.184375
N	-1.1921081549	-1.8340230468	-0.0355952417	-0.201643
H	-1.9292997803	-2.5166853015	-0.0573672961	 0.264207
C	 0.1167764418	-2.1919383862	-0.030648179	-0.201413
N	 0.7180560153	-0.9632476486	 0.0161235598	-0.242593
C	 2.4298929341	-3.8681911281	-0.0143214802	 0.573512
O	 1.9234665666	-4.9128019551	-0.0357650365	-0.286454
O	 3.0474667311	-2.876878943	 0.0080675288	-0.326408
H	 0.9099892706	 1.6942798359	-0.5946402303	 0.251032
H	-0.4878966598	 2.0789217684	 0.1840863429	 0.252011
H	-2.3854215557	-0.0019029206	-0.0279966723	 0.121422
H	 1.7198950365	-0.8741790711	 0.0721507363	 0.269849
30.4792	54.2352	58.789	86.6309	165.6765	185.1917	289.5539	384.8644	558.6284	621.0564	630.2669	658.1158	673.1129	686.8556	691.6462	738.0265	794.2861	935.887	1027.8517	1064.109	1120.6161	1147.4092	1234.9025	1292.7564	1367.4412	1373.9426	1429.6738	1457.6825	1641.883	1695.3539	2418.3362	3280.2843	3511.5416	3613.5389	3653.6058	3681.5188
NC1=C[NH+]=C(N1)C([O-])=O	NC1=CN[CH]N1.C(=O)=O	
InChI=1S/C4H5N3O2/c5-2-1-6-3(7-2)4(8)9/h1H,5H2,(H,6,7)(H,8,9)	InChI=1S/C3H6N3.CO2/c4-3-1-5-2-6-3;2-1-3/h1-2,5-6H,4H2;
