21
gdb 39598	3.16545	1.47924	1.07266	1.3776	83.27	-0.2327	0.0194	0.2521	1147.5682	0.186289	-387.107872	-387.100634	-387.09969	-387.139189	30.23	
C	-0.014899739	 1.5850155083	-0.0136768061	-0.32284
C	 1.4826881528	 1.8507555909	-0.0806988867	-0.057832
C	 2.1935673886	 0.8240159835	 0.392262919	-0.147354
C	 1.2570579495	-0.2323927537	 0.917606689	 0.144871
O	 1.6529379829	-1.5829584679	 0.7905006071	-0.268837
C	 0.65333125	-2.4150765407	 1.3729428985	-0.069866
C	-0.7447996689	-2.2201366747	 0.7574391164	-0.205739
C	-1.1829214825	-0.737417388	 0.740664497	-0.257081
C	-0.0311307615	 0.0511613858	 0.1287390718	 0.066267
H	-0.4575082652	 2.0799127022	 0.8644059406	 0.104731
H	-0.5618895378	 1.9492143281	-0.8897519872	 0.101846
H	 1.8958710076	 2.7885167269	-0.4351560942	 0.094466
H	 3.2707140384	 0.7723638967	 0.4939965738	 0.100734
H	 1.0757915994	-0.0326565297	 1.9951923956	 0.061279
H	 0.9943790894	-3.444725335	 1.2335200684	 0.104263
H	 0.6048000519	-2.220420231	 2.4588813532	 0.084112
H	-0.7302154492	-2.5969318242	-0.2725561517	 0.105198
H	-1.4609125445	-2.8356893941	 1.3139532059	 0.093621
H	-2.1147993569	-0.6229430833	 0.1755988285	 0.092559
H	-1.3828177767	-0.3879215368	 1.7627844687	 0.092474
H	 0.1620583615	-0.3561884233	-0.8735670176	 0.083128
165.2555	187.2026	309.5033	338.8625	357.0686	425.4238	438.3153	500.1571	553.1204	606.4274	719.3864	775.3006	836.0018	858.7118	878.4264	892.3728	933.6033	964.383	970.5859	985.7952	1044.91	1074.8608	1091.5189	1098.2612	1122.3801	1132.479	1158.682	1183.341	1211.2183	1237.7282	1285.1582	1289.5285	1309.1472	1335.3112	1350.7518	1361.8552	1371.7532	1390.6694	1411.1881	1421.8449	1478.9172	1488.6976	1494.4771	1500.5234	1661.7409	2868.55	2952.5654	2995.0849	3008.9364	3019.8508	3028.8892	3061.291	3065.0919	3075.3622	3087.9976	3188.1341	3216.6133
C1C=CC2OCCCC12	C1C=C[C@@H]2OCCC[C@@H]12	
InChI=1S/C8H12O/c1-3-7-4-2-6-9-8(7)5-1/h1,5,7-8H,2-4,6H2	InChI=1S/C8H12O/c1-3-7-4-2-6-9-8(7)5-1/h1,5,7-8H,2-4,6H2/t7-,8+/m1/s1
