21
gdb 88979	2.91711	1.14036	0.90473	1.8418	79.69	-0.2249	0.069	0.2938	1341.6641	0.18049	-424.174733	-424.165228	-424.164284	-424.209681	36.014	
C	 0.232270773	 1.6858004693	 0.521100843	-0.422522
C	 0.0870106649	 0.1886078521	 0.3714470229	-0.021427
C	 1.2257380386	-0.6193972918	-0.2299911391	-0.334722
C	 0.8756640478	-0.785500386	 1.2143391482	 0.139159
O	 1.8225209953	-0.3545332299	 2.1614916564	-0.269699
C	 1.4340358762	-0.5813889402	 3.4922423833	 0.078054
C	 2.3717727243	-0.0625649969	 4.5487883886	-0.366847
C	 1.0339816754	 0.6135274384	 4.3195973817	 0.115067
O	 0.9872333539	 1.8695281439	 3.7185933503	-0.431121
H	 1.2800439574	 1.9663887257	 0.6725211096	 0.117263
H	-0.1071099743	 2.1987651059	-0.3848058733	 0.117234
H	-0.3488811397	 2.0678780539	 1.3659729726	 0.140447
H	-0.9183229308	-0.1413212477	 0.1206067498	 0.086183
H	 1.018502164	-1.4320160428	-0.917450897	 0.114107
H	 2.1403674018	-0.0738467618	-0.4394103604	 0.123088
H	 0.3767705577	-1.7077754474	 1.507995383	 0.089471
H	 0.9416240109	-1.5395080822	 3.651066263	 0.091706
H	 2.534041681	-0.6604287669	 5.4390857716	 0.114846
H	 3.2432553263	 0.4764545977	 4.191521602	 0.126242
H	 0.2552791075	 0.504033098	 5.0680160148	 0.101973
H	 1.3731746085	 1.7703490388	 2.8392538189	 0.2915
29.0575	106.7009	159.3119	173.3944	241.758	257.2072	319.4913	358.4531	397.4655	420.4507	462.9908	562.8955	646.2158	763.7621	771.7243	782.9634	797.2295	837.6693	880.4072	923.9312	981.8275	1022.6103	1032.2986	1055.6688	1074.2904	1091.0043	1111.5657	1115.7492	1127.3072	1142.0757	1161.2827	1187.0964	1190.9204	1231.831	1250.6745	1334.6845	1356.7727	1390.6844	1415.4586	1424.5198	1426.1669	1478.9651	1491.06	1500.5997	1512.1363	3031.0153	3091.6857	3105.6006	3107.1545	3112.8108	3130.5073	3131.3818	3136.7596	3159.1676	3218.5996	3222.793	3778.1665
CC1CC1OC1CC1O	C[C@H]1C[C@H]1O[C@H]1C[C@H]1O	
InChI=1S/C7H12O2/c1-4-2-6(4)9-7-3-5(7)8/h4-8H,2-3H2,1H3	InChI=1S/C7H12O2/c1-4-2-6(4)9-7-3-5(7)8/h4-8H,2-3H2,1H3/t4-,5+,6+,7-/m0/s1
