18
gdb 85654	2.01064	1.68651	1.18372	2.1916	77.57	-0.213	-0.029	0.184	1107.8762	0.146246	-401.921236	-401.912287	-401.911343	-401.955307	33.258	
C	 1.0416684595	 1.1646321482	-0.3559535454	-0.337218
N	 0.1169262123	 0.0890296687	 0.0018761345	-0.063633
C	-0.0046066827	-0.9643464549	-1.0171403374	-0.197795
C	 1.0709371447	-2.0449019574	-0.7047988324	-0.2825
C	 2.3395120451	-1.8462052467	-1.3854745027	 0.345996
C	 3.3915204515	-1.6732067623	-1.9421955196	-0.477351
C	 1.2366995561	-1.8819994864	 0.8405583816	 0.388016
O	 1.8112998405	-2.6333760888	 1.5748911335	-0.291225
C	 0.4787778336	-0.6023839721	 1.2338855855	-0.286172
H	 2.0882444525	 0.8430127415	-0.4826840757	 0.117858
H	 0.7116611289	 1.6226589175	-1.2928366591	 0.124303
H	 1.0096852101	 1.9359786552	 0.4195618677	 0.123328
H	-0.9968867483	-1.4255957842	-0.935778846	 0.109862
H	 0.0948182105	-0.5461132457	-2.0191101415	 0.122582
H	 0.7072981382	-3.0601638995	-0.8974303891	 0.130584
H	 4.3200256878	-1.5300374135	-2.4371723256	 0.202325
H	 1.0776301737	 0.0166157918	 1.9059230135	 0.138192
H	-0.4176601441	-0.9154417813	 1.7905291982	 0.132848
45.4367	104.3443	136.3549	205.2848	223.6102	356.5274	368.6016	404.4421	446.33	479.4784	554.5602	611.1111	619.576	630.4503	696.9072	781.8454	818.4374	868.1181	940.5447	1007.4862	1042.4757	1047.4406	1086.8047	1122.1126	1161.3423	1179.9221	1208.7775	1264.0535	1294.8762	1305.8082	1352.7037	1356.991	1449.7231	1465.4034	1492.8821	1494.7101	1508.6388	1863.5742	2229.2618	2974.8799	2997.2588	3023.5478	3053.1025	3070.6252	3105.4012	3110.6922	3128.7189	3503.5519
CN1CC(C#C)C(=O)C1	CN1C[C@@H](C#C)C(=O)C1	
InChI=1S/C7H9NO/c1-3-6-4-8(2)5-7(6)9/h1,6H,4-5H2,2H3	InChI=1S/C7H9NO/c1-3-6-4-8(2)5-7(6)9/h1,6H,4-5H2,2H3/t6-/m1/s1
