18
gdb 41089	3.3284	1.83424	1.68081	1.3892	75.75	-0.225	0.0279	0.2529	873.1829	0.149513	-401.787175	-401.780871	-401.779926	-401.817398	27.03	
C	-0.0369355682	 1.5254335576	 0.088967677	-0.228939
O	 1.4439160518	 1.561064403	-0.0484234952	-0.324438
C	 1.3080990327	 0.307794698	-0.8257106962	 0.137433
C	 1.6233529324	-1.2015384604	-0.6677303268	-0.074563
C	 1.8114134975	-1.3804492427	 0.8368591295	-0.221635
C	 0.38377815	-0.9200910352	 1.1670548295	-0.077525
C	-0.4388784787	-1.9890355891	 0.4348383918	-0.157398
N	-0.0042872304	-1.3816208886	-0.8678033515	-0.250549
C	 0.086544922	-0.007331933	-0.1034918046	 0.286139
H	-0.3596414874	 1.8938457242	 1.0662813954	 0.120298
H	-0.5148496488	 2.0805052552	-0.7251404	 0.119982
H	 1.1426348116	 0.5594274881	-1.8781064147	 0.097087
H	 2.228815423	-1.752188265	-1.3859149509	 0.083567
H	 2.0154514664	-2.4061587989	 1.1542683998	 0.099301
H	 2.5929920411	-0.7211096755	 1.221572003	 0.119413
H	 0.158738661	-0.588158254	 2.1816663516	 0.065525
H	-0.1732194149	-3.0417701997	 0.5802043841	 0.095738
H	-1.522012001	-1.8621603541	 0.517468238	 0.110562
227.1156	232.795	325.4094	439.9908	479.9945	511.7927	595.0207	633.9014	676.7729	783.538	807.8294	844.6151	857.9735	899.4028	907.0861	944.8377	974.8254	977.1936	991.089	1008.9963	1027.9622	1057.5486	1081.1324	1107.554	1133.9682	1155.4806	1171.5613	1193.9768	1233.3445	1248.2305	1260.067	1271.7571	1282.8455	1305.0725	1345.6659	1370.6905	1487.3606	1496.2449	1507.2842	3038.7209	3040.1613	3057.6828	3064.2708	3100.5712	3104.5796	3112.7049	3116.0258	3135.8448
C1OC2C3CC4CN3C124	C1O[C@H]2[C@H]3C[C@@H]4CN3[C@]124	
InChI=1S/C7H9NO/c1-4-2-8-5(1)6-7(4,8)3-9-6/h4-6H,1-3H2	InChI=1S/C7H9NO/c1-4-2-8-5(1)6-7(4,8)3-9-6/h4-6H,1-3H2/t4-,5-,6+,7+/m1/s1
