17
gdb 87945	4.17554	1.0951	0.98358	4.4626	71.11	-0.2221	0.0601	0.2822	1200.9937	0.136562	-455.138238	-455.130025	-455.129081	-455.171148	31.372	
O	 0.000277259	 1.4026472115	 0.0495529119	-0.418583
C	 0.0284103412	 0.006020053	 0.0310208582	 0.026142
C	-0.5285346828	-0.77579903	 1.2120854312	-0.390721
C	-1.2952367716	-0.663482086	-0.090021372	 0.336867
C	-2.5833863438	 0.139845703	-0.2214509293	-0.136875
O	-3.5482576102	-0.8151981635	-0.6888634646	-0.24872
C	-2.9135799019	-1.9461663744	-1.1225553844	 0.450887
N	-3.463743353	-2.9798219857	-1.5993723186	-0.594045
N	-1.5460594724	-1.7711670724	-0.9674912827	-0.394203
H	 0.6768435029	 1.7111093295	 0.6619764455	 0.293257
H	 0.8659895246	-0.4387331273	-0.5081736388	 0.095841
H	-0.0584886705	-1.7223673442	 1.4611011476	 0.117607
H	-0.8967388945	-0.2067501628	 2.0603776653	 0.122713
H	-2.9340645865	 0.5611273799	 0.7222254098	 0.124971
H	-2.4804697226	 0.9435155577	-0.9581397894	 0.134436
H	-4.4721198149	-2.8536325135	-1.6439906987	 0.223035
H	-1.0015413231	-2.6165713946	-0.901123891	 0.257388
75.1582	135.6002	169.0288	242.1508	297.8314	351.2966	427.4679	448.3416	483.9829	516.0711	593.5487	706.5851	719.2083	787.6449	789.5889	881.7517	912.6604	920.1021	930.3294	1000.0034	1020.4628	1044.2323	1086.8701	1089.8518	1110.658	1171.0447	1220.0109	1258.2985	1275.7223	1298.8486	1333.967	1402.6923	1417.5143	1440.1884	1508.4067	1519.3978	1789.9708	3051.817	3094.0814	3114.197	3119.9526	3213.3579	3530.3308	3642.1583	3801.3135
OC1CC11COC(=N)N1	O[C@H]1C[C@]21CO[C]([NH])N2	
InChI=1S/C5H8N2O2/c6-4-7-5(2-9-4)1-3(5)8/h3,8H,1-2H2,(H2,6,7)	InChI=1S/C5H8N2O2/c6-4-7-5(2-9-4)1-3(5)8/h3,8H,1-2H2,(H2,6,7)/t3-,5+/m0/s1
