18
gdb 19299	3.49519	1.7917	1.45256	2.2051	66.89	-0.2414	0.0603	0.3017	905.1164	0.154586	-384.899676	-384.892053	-384.891109	-384.931306	29.678	
O	-0.0690717922	 1.3679969441	 0.2979937455	-0.42778
C	 0.0263165934	 0.0210030965	-0.1853082158	-0.116855
C	-1.3579566709	-0.5879848164	-0.0463586288	-0.020045
C	-1.5256598064	-2.1111329258	-0.1087673426	-0.083758
C	-0.8431653563	-2.7922466744	 1.0467673539	-0.281489
C	-2.1641667207	-2.1258949362	 1.2885206475	-0.048867
C	-1.9799295428	-0.6132402108	 1.4004698822	 0.10999
O	-1.1508878521	-0.1954950571	 2.460138973	-0.442545
H	 0.8042018392	 1.7688402643	 0.2521213616	 0.292246
H	 0.3506771728	 0.0052022143	-1.2364821466	 0.093797
H	 0.7610186188	-0.5444146036	 0.4015219661	 0.10042
H	-2.03923665	-0.0781066215	-0.7334461274	 0.077056
H	-1.8349415719	-2.6624670401	-0.9885041172	 0.083797
H	-0.8754095266	-3.8765724663	 1.016957814	 0.108912
H	 0.0546830146	-2.3854091354	 1.4998188641	 0.119931
H	-3.0321670779	-2.6736433161	 1.6331586153	 0.083355
H	-2.9437865436	-0.0872195955	 1.4191618477	 0.065656
H	-0.7878240472	 0.6581028498	 2.1863582175	 0.286179
126.3373	146.2355	200.8419	273.5548	321.4305	345.9895	441.3266	504.2828	556.4657	603.9752	684.2398	782.5459	807.4121	821.4952	918.2023	966.748	986.232	996.6597	1030.7719	1035.0774	1065.2942	1072.9529	1081.7373	1115.0615	1150.0346	1168.4611	1219.6759	1236.9837	1257.3309	1279.4971	1295.6635	1353.4784	1358.4919	1373.5696	1425.9436	1453.2411	1490.013	1517.6209	2991.1864	3003.9115	3038.3228	3070.4047	3129.7	3178.1816	3190.4154	3213.0163	3747.5007	3827.6851
OCC1C2CC2C1O	OC[C@H]1[C@H]2C[C@H]2[C@H]1O	
InChI=1S/C6H10O2/c7-2-5-3-1-4(3)6(5)8/h3-8H,1-2H2	InChI=1S/C6H10O2/c7-2-5-3-1-4(3)6(5)8/h3-8H,1-2H2/t3-,4+,5-,6+/m0/s1
