15
gdb 46234	2.71249	1.38487	1.11744	5.1621	72.24	-0.2546	-0.0474	0.2072	1090.9173	0.112124	-416.793681	-416.78558	-416.784636	-416.826841	29.591	
O	-0.0091050859	 0.047366237	-0.2121880688	-0.282524
C	-0.0365353394	 1.2236456206	-0.0202879319	 0.337769
C	-1.103282314	 2.2682773203	 0.3613467369	-0.280793
N	-0.0100813303	 3.2862845506	 0.4748087498	-0.383015
C	 0.9908032788	 2.3350287575	-0.0180026342	 0.237882
C	 2.4347302064	 2.2543837746	 0.352685818	-0.319219
C	 2.0602898086	 2.6059025859	-1.0768887304	-0.257258
C	 2.2801198225	 1.6839179141	-2.1551324458	 0.306833
N	 2.4631297232	 0.9565134149	-3.0357242859	-0.328629
H	-1.8328494706	 2.4452334252	-0.4374322012	 0.140137
H	-1.6333006469	 2.0835510382	 1.3001754462	 0.146114
H	-0.148852608	 4.0835071963	-0.1365414176	 0.234143
H	 2.8422447994	 3.0555387678	 0.9587207313	 0.145394
H	 2.840004946	 1.2649307489	 0.5339475656	 0.161097
H	 2.1707877602	 3.6503667181	-1.3545861319	 0.142071
84.6496	91.9097	141.3606	232.9452	241.0575	350.6919	452.8646	488.0813	541.6071	565.7083	649.0674	696.6596	751.8064	789.5704	862.4383	913.6419	952.6714	972.8463	1026.0687	1038.5977	1067.1143	1083.4161	1119.2952	1137.0625	1205.7245	1276.4605	1304.8518	1365.4217	1394.6987	1460.9018	1477.8298	1916.008	2354.847	3041.189	3097.8853	3140.3267	3155.4197	3239.2545	3534.9228
O=C1CNC11CC1C#N	O=C1CN[C@]21C[C@H]2C#N	
InChI=1S/C6H6N2O/c7-2-4-1-6(4)5(9)3-8-6/h4,8H,1,3H2	InChI=1S/C6H6N2O/c7-2-4-1-6(4)5(9)3-8-6/h4,8H,1,3H2/t4-,6+/m0/s1
