17
gdb 82371	2.57491	1.58155	1.2444	3.6358	66.95	-0.2504	-0.02	0.2304	1026.059	0.135915	-458.956537	-458.948606	-458.947662	-458.990318	29.681	
O	 0.2545538207	 1.1482858845	 0.5312659494	-0.429374
C	-0.0077182864	-0.1912715032	 0.1497905795	 0.096186
C	-1.4759315763	-0.3761511266	-0.2100921236	-0.002793
O	-1.8511893819	 0.6081183231	-1.1891188985	-0.265352
C	-1.6118437908	-0.7426640017	-1.6230337545	 0.051762
C	-0.254040158	-0.9374092763	-2.2630434741	-0.26887
C	 0.7758608942	-0.6382996669	-1.1461035706	-0.152565
C	 1.8293160144	 0.391679403	-1.5164347395	 0.162671
O	 1.8976821094	 0.9485436703	-2.5822682498	-0.245914
H	-0.2546869555	 1.6997445105	-0.0793600404	 0.299286
H	 0.2737867269	-0.8078832047	 1.0074165977	 0.093076
H	-2.2185381382	-0.585651059	 0.5551149689	 0.107135
H	-2.4890868961	-1.2545732363	-2.0100982759	 0.104479
H	-0.1557763906	-1.9615700039	-2.6351163197	 0.107649
H	-0.1110498138	-0.2611144304	-3.1106915157	 0.146851
H	 1.3341985625	-1.550138432	-0.8972899646	 0.10146
H	 2.5677214395	 0.5958380796	-0.7142498987	 0.094313
24.0049	85.3156	222.9204	253.5789	296.4677	370.5659	472.4574	505.043	542.3967	635.6075	683.0414	735.899	788.5516	822.3012	869.58	894.6136	919.5905	964.5231	1017.031	1036.3382	1064.7561	1076.182	1119.2031	1123.6395	1201.8145	1218.65	1259.1069	1274.4017	1312.1337	1324.1587	1331.4982	1344.5654	1421.844	1438.9431	1446.9624	1486.9209	1826.4264	2922.5717	3023.8903	3060.2681	3079.5823	3105.4055	3147.2206	3159.9493	3749.7844
OC1C2OC2CC1C=O	O[C@H]1[C@H]2O[C@H]2C[C@H]1C=O	
InChI=1S/C6H8O3/c7-2-3-1-4-6(9-4)5(3)8/h2-6,8H,1H2	InChI=1S/C6H8O3/c7-2-3-1-4-6(9-4)5(3)8/h2-6,8H,1H2/t3-,4-,5+,6-/m0/s1
