21
gdb 117730	2.18056	1.05879	0.94091	2.1666	85.88	-0.2501	-0.0312	0.2189	1419.3292	0.17811	-387.073409	-387.062415	-387.061471	-387.109573	39.479	
C	-0.0225988335	 1.6695152401	 0.0415142424	-0.383724
C	-0.1467988076	 0.1424882235	 0.0465421604	-0.194108
C	 0.6931257283	-0.4896506617	 1.1644287133	-0.184418
C	 0.7143174742	-2.038780678	 1.202832855	-0.040421
C	-0.6976742519	-2.6756823084	 1.1940851726	-0.428596
C	 1.5022670999	-2.6259630732	 0.0139303989	 0.158998
O	 2.0771137689	-1.9823899116	-0.8212619118	-0.247612
C	 1.4417207757	-2.4989374982	 2.3897123419	 0.318969
C	 2.0628859976	-2.8938609553	 3.3409316363	-0.468745
H	 1.0146736586	 1.9797873792	-0.1239774231	 0.121294
H	-0.6340633685	 2.1136084973	-0.7498954881	 0.112153
H	-0.3487778585	 2.0988579976	 0.9956073183	 0.112179
H	-1.2018918907	-0.1299108937	 0.1681074526	 0.094287
H	 0.1756584523	-0.2528015347	-0.9215388454	 0.119805
H	 1.7292513729	-0.1482954957	 1.0710944279	 0.118643
H	 0.3329591487	-0.1365557185	 2.1377177227	 0.101761
H	-1.2384209331	-2.4178038028	 0.2801572326	 0.131895
H	-0.6291561855	-3.7650763968	 1.2612763079	 0.129695
H	-1.2728385153	-2.3211413945	 2.0533829584	 0.135635
H	 1.5064693664	-3.7387473413	-0.0025636172	 0.090586
H	 2.6042704811	-3.2313432934	 4.1902110445	 0.201724
70.0782	82.5672	105.7123	124.8414	176.2305	210.7716	242.4179	247.702	274.9083	312.2352	353.4043	407.8399	491.0476	534.0688	585.0583	628.998	646.6101	739.3877	785.6674	856.9556	905.7559	909.6156	940.0811	999.7537	1046.8624	1053.1629	1105.0489	1172.2263	1191.5669	1220.7256	1287.7672	1322.1768	1340.4262	1393.4122	1397.7918	1412.0792	1423.1125	1474.3987	1491.7522	1494.0177	1497.6814	1500.0234	1509.0961	1834.3706	2224.807	2884.4556	3029.8542	3032.9469	3039.8871	3047.1092	3074.8598	3086.727	3104.448	3106.73	3120.9648	3129.3639	3499.9089
CCCC(C)(C=O)C#C	CCC[C@@](C)(C=O)C#C	
InChI=1S/C8H12O/c1-4-6-8(3,5-2)7-9/h2,7H,4,6H2,1,3H3	InChI=1S/C8H12O/c1-4-6-8(3,5-2)7-9/h2,7H,4,6H2,1,3H3/t8-/m0/s1
