24
gdb 88680	2.92075	1.02593	0.9381	1.1172	91.46	-0.2202	0.086	0.3062	1434.617	0.215201	-368.380773	-368.370414	-368.369469	-368.415996	39.22	
C	 0.0550920629	 1.6282938371	 0.0127546696	-0.400127
C	 0.0242895257	 0.1169257757	-0.0153087813	-0.013313
C	 1.2993553658	-0.6766126527	-0.1876753841	-0.312736
C	 0.5684613013	-0.7079389206	 1.1316682157	 0.05668
N	 1.1713983934	-0.0143935703	 2.2333121336	-0.11036
C	 0.5664290854	-0.1513234168	 3.5559433588	-0.296031
C	 1.912483206	-0.7398177008	 3.2755693675	 0.343088
C	 2.0598075544	-2.2491079376	 3.2160661399	-0.453311
C	 3.1526246274	-0.0140727909	 3.760339247	-0.437538
H	 0.9132991286	 1.9848504232	 0.586256127	 0.131143
H	 0.1182168175	 2.0376714242	-1.0015756815	 0.108118
H	-0.8492666266	 2.0340787022	 0.4802456927	 0.109359
H	-0.854225621	-0.3078568017	-0.4949342364	 0.078493
H	 1.2953462321	-1.5658316427	-0.8086030795	 0.104704
H	 2.2272855797	-0.1145886952	-0.2050702132	 0.114148
H	 0.0151791933	-1.6201418407	 1.3617250799	 0.068289
H	 0.4650653701	 0.7640223864	 4.1351262853	 0.105666
H	-0.2688571919	-0.8438295796	 3.660145625	 0.100599
H	 1.1344103506	-2.7520875656	 2.928094186	 0.11706
H	 2.8392386317	-2.5359584004	 2.5008589894	 0.122052
H	 2.3546782842	-2.6354894883	 4.1976701841	 0.117886
H	 3.406769499	-0.3117556533	 4.7842311099	 0.110008
H	 4.0131660155	-0.2453937357	 3.1217785869	 0.11395
H	 2.9974574049	 1.067145664	 3.7384985779	 0.122172
47.3765	121.8183	135.4528	177.9811	194.3005	213.5017	232.4144	330.7493	357.7831	382.1001	393.9702	437.4535	460.2985	558.0234	711.0942	743.3452	788.2257	848.8644	865.9028	910.1186	914.6213	952.7997	959.883	991.6778	1024.9034	1039.6662	1067.6904	1090.2778	1104.2333	1119.1738	1126.4998	1145.8819	1150.1986	1196.8497	1212.0406	1258.6465	1289.3269	1373.3213	1387.0904	1406.0036	1412.2146	1419.305	1422.538	1478.2389	1482.8924	1486.5296	1496.1815	1498.2221	1503.9329	1504.702	1515.6709	3025.7113	3030.6134	3033.7517	3070.7434	3079.1178	3085.0744	3085.1785	3091.4061	3121.3865	3122.0783	3124.1373	3130.9272	3139.62	3162.2323	3218.1553
CC1CC1N1CC1(C)C	C[C@H]1C[C@H]1N1CC1(C)C	
InChI=1S/C8H15N/c1-6-4-7(6)9-5-8(9,2)3/h6-7H,4-5H2,1-3H3	InChI=1S/C8H15N/c1-6-4-7(6)9-5-8(9,2)3/h6-7H,4-5H2,1-3H3/t6-,7+,9?/m0/s1
