19
gdb 61857	4.65123	0.78707	0.76589	3.3243	72.16	-0.2449	-0.0194	0.2255	1497.3444	0.157589	-460.139177	-460.12983	-460.128886	-460.174592	33.154	
O	-0.1324228501	 1.3833173775	 0.1004129886	-0.454309
C	 0.0532551245	-0.0235868876	-0.0071018295	 0.120587
C	 0.8095228455	-0.2972599625	-1.3184949455	-0.28717
C	 0.0984440101	 0.278229572	-2.5265771287	 0.153235
O	-0.2087068075	-0.3672959788	-3.4970102034	-0.244408
C	 0.7807530916	-0.6101591815	 1.2072316957	-0.059283
C	 1.9200216821	 0.2871199751	 1.7405590554	-0.098896
O	 1.0213678527	 0.8593897223	 2.7279818905	-0.28393
C	 0.1010846035	-0.2477996324	 2.5444914291	-0.119437
H	-0.0049849873	 1.6510521415	 1.020405844	 0.302211
H	-0.9330269801	-0.5144119115	-0.0678500066	 0.084325
H	 1.7976025324	 0.1794421196	-1.2521266158	 0.118932
H	 0.9435419046	-1.3711733622	-1.4771717706	 0.114974
H	-0.1262433388	 1.3623951036	-2.4568207895	 0.101774
H	 1.0082425857	-1.6650738308	 1.0415322079	 0.087942
H	 2.739414792	-0.2634771616	 2.2188508595	 0.109884
H	 2.3263665404	 1.0493736106	 1.0696834502	 0.122792
H	-0.9430932439	 0.0825041244	 2.5132038259	 0.119155
H	 0.2210527826	-1.0033637078	 3.3312771727	 0.111622
45.9224	71.1539	89.6636	142.0128	189.0997	260.084	318.561	341.7092	396.5921	479.4208	538.4669	577.7342	807.3202	838.0077	847.9511	864.3725	917.7763	957.8695	999.7112	1005.6891	1024.0231	1065.954	1089.9593	1108.3024	1153.4036	1159.3257	1188.3981	1217.8218	1236.4516	1292.2955	1304.1079	1310.9391	1341.6847	1364.5592	1391.5488	1422.284	1438.5938	1452.5523	1504.447	1533.0999	1828.0948	2927.7769	2956.4477	3016.6107	3019.2571	3027.9774	3072.9874	3091.7985	3095.8468	3103.805	3744.2533
OC(CC=O)C1COC1	O[C@@H](CC=O)C1COC1	
InChI=1S/C6H10O3/c7-2-1-6(8)5-3-9-4-5/h2,5-6,8H,1,3-4H2	InChI=1S/C6H10O3/c7-2-1-6(8)5-3-9-4-5/h2,5-6,8H,1,3-4H2/t6-/m0/s1
