18
gdb 126934	3.30259	1.01322	0.78495	3.9448	75.63	-0.2048	0.0152	0.2201	1436.4634	0.148611	-435.25293	-435.24397	-435.243026	-435.287086	33.029	
C	-0.0324107649	 1.5362182197	-0.0120729839	-0.400284
C	-0.0537919334	 0.0123004575	 0.0178536204	-0.114983
N	-1.421293681	-0.491558724	-0.0453674984	-0.421357
C	-1.5843570577	-1.8766442012	-0.0002467095	 0.142802
C	-0.6963102458	-2.9057080172	-0.0298259502	 0.004256
O	-1.3474270299	-4.090570113	-0.0147576094	-0.189185
N	-2.7209198068	-3.8520684196	 0.0293136574	-0.222612
C	-2.8505510917	-2.5470151516	 0.0365778372	 0.331178
N	-4.0792065007	-1.905668121	 0.1407491227	-0.599766
H	 0.9962251294	 1.9064139285	 0.0077218833	 0.124533
H	-0.5213271551	 1.9138749569	-0.9145966493	 0.13054
H	-0.5515680707	 1.9552912942	 0.8576663692	 0.118237
H	 0.4839591934	-0.3870598274	-0.8511257525	 0.115707
H	 0.477280514	-0.3565047384	 0.9128668793	 0.095367
H	-2.0253196069	-0.0298583866	 0.6267897839	 0.234817
H	 0.3793419547	-2.9579575489	-0.0654119234	 0.136434
H	-4.8535900515	-2.5485172052	 0.0288127657	 0.259889
H	-4.1629385455	-1.1283905524	-0.5038542924	 0.254429
71.1726	91.8584	115.9513	248.1355	251.602	286.3096	329.2214	340.1918	387.7865	516.6981	574.6292	637.2307	686.9664	719.2053	773.7642	794.9331	818.4117	843.6324	917.3734	930.9131	952.1075	1078.6077	1127.7239	1148.1549	1164.1632	1170.5297	1255.2807	1293.2182	1314.2154	1384.4473	1413.5202	1466.0078	1490.1031	1498.8858	1509.0578	1525.2078	1569.4423	1636.793	1697.6516	2949.5273	3034.7714	3042.0623	3104.0996	3123.6878	3276.0098	3520.2934	3526.8537	3624.2454
CCNC1=CON=C1N	CCNc1conc1N	
InChI=1S/C5H9N3O/c1-2-7-4-3-9-8-5(4)6/h3,7H,2H2,1H3,(H2,6,8)	InChI=1S/C5H9N3O/c1-2-7-4-3-9-8-5(4)6/h3,7H,2H2,1H3,(H2,6,8)
