15
gdb 49674	2.35903	1.86488	1.44316	5.3119	66.86	-0.2557	-0.0118	0.244	934.2529	0.113857	-453.948665	-453.94131	-453.940365	-453.980812	27.219	
N	-0.5729015775	 1.0583313507	 0.5970574722	-0.39849
C	-0.3583095096	-0.1152462648	 0.1724341656	 0.046808
N	-1.330564748	-0.8426136064	-0.5156799758	-0.053372
C	-1.9154827058	-2.0913465283	-0.0940936281	-0.074305
C	-1.857283098	-2.4115973698	 1.3917340808	-0.104847
O	-2.4702132046	-1.3106319593	 2.0724115996	-0.22752
C	-3.1358953962	-0.4807469492	 1.2063600968	 0.482034
O	-3.9185324205	 0.3394688818	 1.5745686178	-0.329753
C	-2.7471353812	-0.8437591661	-0.2076101758	-0.192535
H	 0.2747676115	 1.4606444323	 0.9934203535	 0.234204
H	 0.5956047516	-0.6555514988	 0.2121174649	 0.102496
H	-1.9430570255	-2.9003511529	-0.8167850842	 0.12135
H	-2.419272033	-3.3261783848	 1.6123960767	 0.131377
H	-0.8376496423	-2.5271115402	 1.7725981035	 0.129163
H	-3.4395172509	-0.6104348441	-1.0071246075	 0.13339
104.6744	120.8577	181.8872	231.4378	299.6645	451.1348	463.7761	588.0637	677.4201	706.9147	773.1665	810.224	845.751	869.1957	883.5928	955.2001	1000.1918	1033.9581	1060.0373	1079.3082	1094.3515	1114.3789	1171.8005	1224.2375	1233.8222	1283.359	1325.918	1385.4339	1405.371	1432.6216	1511.0734	1715.3169	1897.6407	3041.2769	3046.2903	3086.4461	3168.472	3198.5099	3504.7068
N=CN1C2COC(=O)C12	[NH][CH]N1[C@H]2COC(=O)[C@@H]12	
InChI=1S/C5H6N2O2/c6-2-7-3-1-9-5(8)4(3)7/h2-4,6H,1H2	InChI=1S/C5H6N2O2/c6-2-7-3-1-9-5(8)4(3)7/h2-4,6H,1H2/t3-,4-,7?/m0/s1
