27
gdb 102406	1.53736	1.50983	0.95734	1.2614	91.43	-0.2624	0.0655	0.3278	1437.2163	0.250015	-390.696549	-390.684492	-390.683548	-390.734374	44.297	
C	-0.1477153574	 1.5022550103	-0.1973611069	-0.409251
C	-0.0624263945	-0.0108970874	 0.0351433653	-0.185291
C	 0.7418542516	-0.4912477696	 1.2738540959	 0.257835
C	 0.6970060423	-2.0436476645	 1.2646248835	-0.185286
C	 1.4481225064	-2.7699576944	 2.386785135	-0.409251
C	 2.1948685075	 0.0467224967	 1.2657472428	-0.203651
C	 3.0608752896	-0.3553841241	 0.0662171443	-0.402044
C	 0.0808441828	 0.0394204173	 2.5594294603	-0.09807
O	-1.2627578693	-0.4235161794	 2.6250835868	-0.428929
H	 0.8362880108	 1.9600086933	-0.3411972515	 0.11323
H	-0.7366893591	 1.7106389787	-1.0964356587	 0.110629
H	-0.6381256167	 2.0177429629	 0.6343286069	 0.116998
H	-1.0783308023	-0.4070214828	 0.1305144705	 0.111969
H	 0.3643764184	-0.4827377346	-0.8578943114	 0.087499
H	-0.3557600689	-2.3411248155	 1.300003953	 0.111975
H	 1.078881966	-2.3943107669	 0.2984396454	 0.087498
H	 1.3419643712	-3.8532166678	 2.2687510901	 0.110627
H	 2.5199901206	-2.5472775193	 2.385654432	 0.113221
H	 1.0544793674	-2.514682593	 3.3756253113	 0.117008
H	 2.164795449	 1.1415421957	 1.3261133636	 0.091722
H	 2.6956512291	-0.2791902269	 2.1856262734	 0.09172
H	 3.178594111	-1.4406835833	-0.0092803212	 0.119456
H	 2.6405711135	-0.0015237529	-0.8801294185	 0.119452
H	 4.0624570805	 0.0761550378	 0.1606162109	 0.11052
H	 0.6544124071	-0.3004289363	 3.4350291142	 0.082051
H	 0.1157968875	 1.1393802592	 2.5637775076	 0.082061
H	-1.6590611739	-0.0834658034	 3.4318495652	 0.286303
20.6164	78.2683	95.2363	145.7828	170.4364	233.0848	235.4942	241.375	266.1436	299.8469	321.4553	328.5715	343.1832	395.5842	403.9259	513.3658	541.1516	699.0393	753.1201	779.6923	788.3555	871.1547	923.282	959.7632	1004.7906	1023.3428	1034.3774	1050.8831	1054.2714	1076.896	1101.5375	1120.7786	1185.2877	1193.9066	1214.6502	1271.6977	1279.5473	1303.3241	1318.5414	1342.1361	1379.3759	1385.2701	1400.0909	1410.3893	1411.1637	1415.32	1457.3084	1476.2257	1482.9571	1493.2917	1501.0303	1503.3878	1506.8317	1508.7373	1511.324	1518.4273	1531.5884	2979.197	3003.7193	3025.4227	3031.0156	3036.378	3036.8219	3039.0869	3043.0867	3052.7298	3073.1132	3078.6753	3099.1978	3099.8799	3103.1863	3106.7899	3109.8493	3111.6997	3837.4373
CCC(CC)(CC)CO	CCC(CC)(CC)CO	
InChI=1S/C8H18O/c1-4-8(5-2,6-3)7-9/h9H,4-7H2,1-3H3	InChI=1S/C8H18O/c1-4-8(5-2,6-3)7-9/h9H,4-7H2,1-3H3
