21
gdb 115538	2.55302	1.08927	1.01919	1.2026	85.15	-0.2484	0.0432	0.2916	1336.8958	0.179891	-387.046213	-387.036128	-387.035184	-387.081187	37.338	
C	-0.0411810931	 1.5835460722	-0.2391973635	-0.383483
C	 0.0558269596	 0.0806585807	 0.049836413	-0.205695
C	-1.3143290762	-0.5637349401	 0.1169758279	 0.139055
O	-2.0369271681	-0.5016734263	-1.1346073471	-0.295464
C	-2.5157920292	-1.8466787448	-0.9716029624	-0.102418
C	-1.4920305622	-2.124795177	 0.1694339311	 0.05094
C	-0.2840042321	-2.9418465443	-0.3078889844	-0.453606
C	-2.0300742218	-2.6507285542	 1.4114197286	 0.275684
C	-2.4730647101	-3.0801867518	 2.4439479831	-0.459721
H	 0.952678494	 2.0355534351	-0.3058162377	 0.112181
H	-0.5608692392	 1.7583910463	-1.185308895	 0.13943
H	-0.5951364696	 2.1039663033	 0.549584035	 0.116089
H	 0.6566169803	-0.4056522802	-0.7253114094	 0.10088
H	 0.5634582162	-0.0895481556	 1.0081664075	 0.102974
H	-1.9054143065	-0.0920912228	 0.9164407199	 0.073352
H	-3.5619251439	-1.878629924	-0.6431544417	 0.105668
H	-2.3954974441	-2.4436039704	-1.8825410984	 0.10585
H	 0.0802250858	-2.5671472728	-1.2681890993	 0.127811
H	 0.5338667004	-2.9028984751	 0.4168300604	 0.128534
H	-0.571227465	-3.9896424814	-0.4354187592	 0.127121
H	-2.8671871353	-3.4594587268	 3.3541450115	 0.19482
76.3974	79.7435	146.0564	161.1217	186.9079	224.9036	265.4439	301.9683	353.0742	374.418	466.2263	536.3355	564.68	603.3133	625.3756	632.1345	758.9591	825.8805	902.9755	918.913	942.237	955.475	980.838	1029.9483	1056.3242	1116.1566	1122.0857	1160.9528	1174.9473	1209.4938	1236.4222	1283.6835	1303.3022	1332.9947	1360.6201	1405.4092	1408.7678	1418.846	1472.237	1494.5164	1497.0896	1498.2067	1508.5703	1522.8333	2231.811	2987.6048	3018.179	3029.0877	3037.9261	3043.4895	3071.4397	3078.3711	3106.6736	3116.0387	3120.7647	3123.2782	3501.6453
CCC1OCC1(C)C#C	CC[C@H]1OC[C@]1(C)C#C	
InChI=1S/C8H12O/c1-4-7-8(3,5-2)6-9-7/h2,7H,4,6H2,1,3H3	InChI=1S/C8H12O/c1-4-7-8(3,5-2)6-9-7/h2,7H,4,6H2,1,3H3/t7-,8+/m1/s1
