18
gdb 90372	2.33556	1.62101	1.33815	3.4829	73.52	-0.256	0.0069	0.2629	1054.5505	0.146335	-439.068721	-439.060234	-439.05929	-439.101605	32.108	
C	 0.4512993165	 1.4936037211	-0.0255460802	-0.409982
C	 0.131431834	 0.0200908358	 0.0847604868	 0.101872
O	 0.9086790395	-0.8170055941	-0.8234465301	-0.313354
C	 1.3426260803	-1.6793600618	 0.2477418616	-0.068131
C	 2.6184700194	-1.1740844036	 0.8920295257	 0.437343
N	 3.8419229997	-1.3947578159	 0.7480426483	-0.54972
O	 1.9463053454	-0.3232915451	 1.7628980369	-0.299566
C	 0.6335586931	-0.7940926878	 1.2991729993	 0.366216
C	-0.2695064913	-1.1902832548	 2.4296912741	-0.48806
H	 1.494968413	 1.6883218468	 0.2288698325	 0.140169
H	 0.2677898769	 1.8352544769	-1.0485116373	 0.133841
H	-0.1902549262	 2.0734825477	 0.6467007852	 0.120217
H	-0.9388925814	-0.1618692472	-0.0879401602	 0.082029
H	 1.2049055305	-2.7422369949	 0.0502111405	 0.106367
H	 4.4047364275	-0.8182495378	 1.376873198	 0.230298
H	-0.5251033051	-0.3156339729	 3.037693528	 0.13964
H	-1.1979222603	-1.6225474495	 2.0454204573	 0.132696
H	 0.2169495284	-1.9235795328	 3.0786888535	 0.138127
92.6396	178.5909	191.3495	203.4441	229.8095	288.4861	307.3754	411.5322	428.1223	556.9463	615.9638	634.8357	735.0677	801.5068	840.0781	871.6824	877.6171	891.4436	982.71	991.0552	1015.1909	1025.6158	1094.594	1126.4803	1147.1212	1160.0013	1206.1399	1254.7228	1277.068	1298.8463	1348.8853	1387.4778	1406.8768	1419.002	1482.0009	1484.69	1489.5746	1492.236	1827.3376	3003.2632	3040.0844	3043.5613	3108.6134	3110.8882	3122.1066	3123.2427	3138.5493	3469.1171
CC1OC2C(=N)OC12C	C[C@H]1O[C@H]2[C]([NH])O[C@@]12C	
InChI=1S/C6H9NO2/c1-3-6(2)4(8-3)5(7)9-6/h3-4,7H,1-2H3	InChI=1S/C6H9NO2/c1-3-6(2)4(8-3)5(7)9-6/h3-4,7H,1-2H3/t3-,4+,6+/m1/s1
