23
gdb 60399	3.73054	0.7919	0.73058	1.604	83.61	-0.2448	0.0888	0.3336	1676.0603	0.202461	-425.407031	-425.396217	-425.395273	-425.443946	38.978	
C	 0.3744360226	 1.2600343565	-0.9683037535	-0.402725
C	 0.1207519185	 0.0371137568	-0.0846507877	 0.145829
C	-1.3526333434	-0.1179863141	 0.2777645556	-0.38386
O	 0.4994608623	-1.186836984	-0.7188827149	-0.259217
C	 1.8821351698	-1.4761744713	-0.7750468809	-0.105162
C	 2.4937345154	-1.1522083312	-2.1216873372	 0.04792
O	 3.1148240335	 0.1262410056	-2.3089000457	-0.252712
C	 3.9418900224	-1.0424244022	-2.3663648407	 0.074991
C	 5.0116607722	-1.1955429497	-1.3134572535	-0.419573
H	 1.4326138222	 1.3638558464	-1.2172646349	 0.149237
H	-0.1914146952	 1.1740989114	-1.902176669	 0.114871
H	 0.0504200957	 2.1707052755	-0.453006876	 0.105373
H	 0.7073763804	 0.1415986199	 0.8438002899	 0.063757
H	-1.9532341011	-0.2492627159	-0.6279868729	 0.121852
H	-1.5015954625	-0.9924335346	 0.916641088	 0.116796
H	-1.7148462735	 0.7692082923	 0.8055351917	 0.110987
H	 2.42661248	-0.9587533002	 0.0251654335	 0.097177
H	 1.9807316655	-2.5578062518	-0.606406889	 0.105121
H	 1.8624045841	-1.4614782866	-2.9568751558	 0.096275
H	 4.2789416789	-1.2785746491	-3.3782080682	 0.08949
H	 4.6434872915	-0.9498510039	-0.3157113311	 0.127793
H	 5.3899269953	-2.2235800908	-1.3028174391	 0.124376
H	 5.8548141553	-0.5331683489	-1.5356732886	 0.131406
31.215	53.4499	97.9109	154.7493	193.586	216.0978	239.0095	265.5872	310.8587	344.1317	390.6407	441.9778	455.6476	475.0742	567.4653	763.7901	800.4709	838.9711	900.2855	927.6627	933.0966	944.743	987.1758	1020.4614	1089.6816	1109.9915	1115.7096	1153.3738	1159.1913	1173.4284	1191.7523	1203.6625	1295.7627	1308.7483	1365.8278	1368.7366	1383.2098	1399.4821	1413.3957	1416.9644	1420.2731	1463.9646	1478.913	1480.7913	1488.8207	1491.1793	1497.7346	1513.2473	1514.5695	2956.0128	3002.0983	3035.0099	3040.0669	3042.2042	3050.8576	3079.4927	3099.8867	3100.2742	3101.7659	3114.9011	3121.5322	3135.9646	3137.7602
CC(C)OCC1OC1C	CC(C)OC[C@H]1O[C@H]1C	
InChI=1S/C7H14O2/c1-5(2)8-4-7-6(3)9-7/h5-7H,4H2,1-3H3	InChI=1S/C7H14O2/c1-5(2)8-4-7-6(3)9-7/h5-7H,4H2,1-3H3/t6-,7+/m0/s1
