19
gdb 71547	2.53963	1.47454	1.3887	3.0357	81.5	-0.2414	-0.0259	0.2155	1055.4928	0.158286	-385.832552	-385.824425	-385.823481	-385.865149	31.39	
C	-0.0648248952	 1.4677251697	-0.0219706675	-0.518264
C	 0.0135355348	-0.0332416002	-0.0658366849	 0.308195
C	 0.5809087571	-0.9397637747	-1.1790418469	-0.315045
C	 0.085758495	-1.9255556863	-0.108364652	-0.086121
C	 0.5330604703	-0.9955151956	 1.0688116482	-0.078913
C	-0.839740603	-1.0685550369	 1.7656962076	-0.32409
C	-1.175835498	-1.0510675928	 0.2668930512	 0.248884
C	-2.4984529284	-1.0889830704	-0.3957942514	 0.018637
O	-3.5546915247	-1.0863275176	 0.1913766945	-0.254591
H	 0.9383722149	 1.9059006441	-0.0725960734	 0.125497
H	-0.6423820809	 1.8606742373	-0.8654956342	 0.126378
H	-0.5377995621	 1.8169363164	 0.9019283056	 0.129583
H	 0.0632288506	-0.9364046828	-2.1434046363	 0.096813
H	 1.6646550347	-0.8934238309	-1.3317315792	 0.094641
H	 0.1019709143	-3.0162284591	-0.1074484137	 0.08237
H	 1.5312701392	-0.9692602427	 1.5100320142	 0.073822
H	-1.0713037488	-1.9927958862	 2.3024268558	 0.102651
H	-1.1516529843	-0.1994477776	 2.3512213225	 0.10368
H	-2.4646773854	-1.1168864536	-1.5100125499	 0.065874
79.6453	167.8949	200.3159	215.8303	261.9733	342.46	361.1763	441.0038	512.5983	621.4663	670.8761	685.1356	788.6332	851.2428	878.0358	892.4305	936.9415	939.7469	1001.4161	1004.6902	1017.8857	1025.1277	1074.7748	1109.1755	1127.7157	1144.2988	1161.7408	1166.7424	1196.2677	1225.563	1235.4422	1280.7114	1317.0389	1322.6578	1411.8836	1428.1056	1485.6055	1490.2795	1512.6607	1515.7641	1804.4324	2853.6107	3027.9863	3036.4102	3053.7457	3091.0219	3093.5092	3094.5177	3100.3475	3109.9794	3110.8767
CC12CC3C1CC23C=O	C[C@@]12C[C@H]3[C@@H]1C[C@@]23C=O	
InChI=1S/C8H10O/c1-7-2-6-5(7)3-8(6,7)4-9/h4-6H,2-3H2,1H3	InChI=1S/C8H10O/c1-7-2-6-5(7)3-8(6,7)4-9/h4-6H,2-3H2,1H3/t5-,6-,7+,8-/m0/s1
