23
gdb 92592	2.08357	1.56223	1.43288	1.2652	84.07	-0.2462	0.0792	0.3254	1118.6494	0.20685	-388.303693	-388.294881	-388.293936	-388.336556	35.479	
C	-0.853063565	 1.3061766237	 0.1013315178	-0.419638
C	-0.0410458266	 0.0272965028	-0.0461170531	-0.00519
C	 1.2222422367	 0.0439579822	-0.9544485749	-0.265557
C	 2.0315961479	-0.7050429287	 0.1452448247	-0.020057
C	 3.2343302038	 0.0365573278	 0.7364419058	-0.22279
C	 2.5991194942	 1.1644336074	 1.5775332998	-0.212812
C	 1.33946586	 0.5118170951	 2.1828390605	-0.288368
C	 0.8398973417	-0.5072249374	 1.1348150304	 0.403291
O	 0.38328674	-1.7138355528	 1.7203094713	-0.489
H	-0.2246180472	 2.1573277307	 0.3856782787	 0.115054
H	-1.3437690713	 1.564658536	-0.8436902191	 0.114921
H	-1.6376181497	 1.2040407011	 0.8605180101	 0.106615
H	-0.6990669882	-0.7957836613	-0.3429876987	 0.074043
H	 1.1274848681	-0.4721041805	-1.9123980138	 0.096685
H	 1.5984685646	 1.0531330356	-1.1512387617	 0.092011
H	 2.2284770737	-1.750605373	-0.0965116255	 0.071843
H	 3.8025716166	-0.6375185385	 1.3887580874	 0.098989
H	 3.9246073515	 0.4106730587	-0.0269274816	 0.092128
H	 3.2746839766	 1.5591867863	 2.341773633	 0.095209
H	 2.3225348139	 2.0084243559	 0.9348574751	 0.101194
H	 1.6150103163	-0.0644602834	 3.0733097445	 0.10151
H	 0.5806866283	 1.2416235542	 2.4831678282	 0.089049
H	-0.3430701557	-1.500611992	 2.3163574812	 0.27087
86.6442	209.064	219.8023	225.1256	241.4552	280.7095	330.8248	388.1296	435.3618	483.6036	539.0349	589.6067	616.218	717.6895	813.5657	842.9343	874.4899	883.1165	901.2539	928.2624	934.5823	970.7604	995.4654	1044.0306	1048.8432	1067.8081	1114.8729	1136.4793	1150.3543	1173.8575	1205.2001	1211.1735	1230.0518	1253.7313	1275.9219	1280.7005	1312.1493	1318.1768	1335.8227	1348.2373	1370.3701	1386.0226	1409.5813	1478.986	1485.3691	1489.2436	1495.5241	1501.49	1511.1748	3022.4182	3031.2113	3035.8711	3037.7309	3048.0321	3050.2941	3076.8287	3079.7633	3084.5579	3091.6121	3093.0071	3095.3718	3109.341	3797.7432
CC1CC2CCCC12O	C[C@H]1C[C@H]2CCC[C@@]12O	
InChI=1S/C8H14O/c1-6-5-7-3-2-4-8(6,7)9/h6-7,9H,2-5H2,1H3	InChI=1S/C8H14O/c1-6-5-7-3-2-4-8(6,7)9/h6-7,9H,2-5H2,1H3/t6-,7+,8+/m0/s1
