18
gdb 57019	2.42609	1.34982	0.91058	2.7852	78.77	-0.2439	-0.0278	0.2161	1267.0125	0.145302	-401.906389	-401.89702	-401.896076	-401.940955	34.324	
C	-0.1435887539	 1.4765065926	 0.0629562755	-0.400483
C	 0.0334384617	-0.0488715893	-0.0665021803	-0.153422
C	 0.7073479042	-0.4093322171	-1.3107778929	 0.337593
C	 1.2818885292	-0.67704726	-2.331870585	-0.465348
C	 0.8037745755	-0.6088647529	 1.1464919156	-0.095772
N	 0.1291915879	-0.403907363	 2.458382506	-0.327988
C	 0.2577311511	-1.8340922339	 2.8471715931	-0.286052
C	 0.7370568539	-2.1275963005	 1.4158653984	 0.385265
O	 0.9371428319	-3.1126312856	 0.7748051251	-0.273869
H	 0.8275501163	 1.9813864868	 0.0511609178	 0.120738
H	-0.7372755815	 1.8655819441	-0.7678782735	 0.129076
H	-0.6547196996	 1.7085690787	 1.0010165418	 0.130205
H	-0.9634901005	-0.5088818199	-0.0555641283	 0.110565
H	 1.7785919855	-0.9367555972	-3.2337019607	 0.197294
H	 1.8462586421	-0.2595183966	 1.1074274413	 0.102187
H	 0.6153111897	 0.2344335746	 3.0759675883	 0.227773
H	 1.0306435947	-2.0596373284	 3.5947359278	 0.125789
H	-0.6787408381	-2.3105971025	 3.15646502	 0.136451
55.6502	97.3059	123.5874	182.4046	210.0388	250.4163	287.689	362.6961	451.0774	495.0298	519.8497	574.4959	633.7852	646.3769	664.6459	742.6923	826.6191	872.5214	938.0044	981.0027	1010.7526	1017.3824	1061.5018	1084.8584	1096.2827	1120.7612	1159.3497	1219.391	1255.7763	1297.3904	1327.859	1358.6187	1371.3085	1398.8882	1476.3521	1494.3631	1499.8934	1917.9377	2237.453	2998.0125	3014.9033	3023.2695	3042.5163	3072.292	3117.6323	3128.8429	3505.6233	3555.1871
CC(C#C)C1NCC1=O	C[C@@H](C#C)[C@H]1NCC1=O	
InChI=1S/C7H9NO/c1-3-5(2)7-6(9)4-8-7/h1,5,7-8H,4H2,2H3	InChI=1S/C7H9NO/c1-3-5(2)7-6(9)4-8-7/h1,5,7-8H,4H2,2H3/t5-,7+/m0/s1
