19
gdb 93596	4.57888	0.93228	0.80032	1.2028	87.33	-0.227	-0.0143	0.2127	1404.2646	0.159148	-385.880313	-385.871508	-385.870563	-385.913522	34.09	
O	-0.0985005559	 1.4542703788	 0.0065269447	-0.441025
C	 0.0088505365	 0.0378566291	 0.0016340951	 0.131631
C	-1.4041140718	-0.5334126844	 0.0400059756	-0.209861
C	-1.374437727	-2.0634635412	 0.1354255124	-0.314001
C	-0.3743124135	-2.6852979179	-0.8257814917	 0.14487
C	 0.5711532096	-1.957012898	-1.4425890347	-0.141563
C	 0.7491975579	-0.4779764863	-1.2394755776	-0.2829
C	-0.4814474853	-4.0893817991	-1.036243017	 0.218342
C	-0.6162550564	-5.2786526641	-1.1780905441	-0.40886
H	 0.7905185662	 1.8223849228	-0.0218412829	 0.279692
H	 0.5483767566	-0.3064514588	 0.9004891023	 0.067674
H	-1.9492764565	-0.1046277413	 0.8861590349	 0.10532
H	-1.9276396577	-0.2213921567	-0.8718969743	 0.10813
H	-1.1251343741	-2.3807076088	 1.1573322451	 0.118708
H	-2.3690446718	-2.4756996324	-0.0655727577	 0.118574
H	 1.2525283311	-2.4526937424	-2.1280251043	 0.094938
H	 0.3776604164	 0.0737699137	-2.1158619203	 0.122092
H	 1.8204996816	-0.2420390006	-1.1700881474	 0.097113
H	-0.7204107459	-6.3262626724	-1.314811358	 0.191126
78.2499	144.2879	199.0084	204.6567	286.5999	340.9939	360.7959	373.0111	447.8387	496.29	540.3613	565.3074	589.4303	634.5039	638.5102	764.7158	821.2658	860.5809	935.1026	947.4572	980.6232	1042.8198	1082.2847	1093.7115	1101.5095	1148.5019	1161.98	1210.6404	1254.005	1290.4537	1321.2744	1335.288	1348.1726	1377.3539	1393.6002	1442.1619	1474.4905	1479.8084	1500.6708	1691.7038	2218.2652	2952.8856	2997.9901	3017.3092	3027.0324	3038.2596	3067.5167	3090.2152	3170.2839	3504.2347	3813.7528
OC1CCC(=CC1)C#C	O[C@H]1CCC(=CC1)C#C	
InChI=1S/C8H10O/c1-2-7-3-5-8(9)6-4-7/h1,3,8-9H,4-6H2	InChI=1S/C8H10O/c1-2-7-3-5-8(9)6-4-7/h1,3,8-9H,4-6H2/t8-/m1/s1
