19
gdb 60516	2.59612	1.03831	0.96875	1.1546	76.35	-0.2465	-0.0943	0.1523	1334.3075	0.156362	-423.033618	-423.023797	-423.022853	-423.069456	34.629	
C	-0.0803371321	 1.5990348407	-0.1170002749	-0.409343
C	-0.0678342086	 0.0633885208	 0.0746079409	-0.119339
C	 0.7745913942	-0.3603567742	 1.2590053087	 0.045665
C	 1.4484734562	-1.7082400805	 1.2732567945	-0.274788
C	 2.2721238319	-0.4522140198	 1.121072506	-0.282826
C	-1.5039413226	-0.403897202	 0.2226785093	 0.295588
O	-2.0689598371	-0.5961708175	 1.2747400783	-0.287526
C	-2.3181124942	-0.622771603	-1.0641875611	 0.093793
O	-1.8673391027	-0.5054804263	-2.1732424832	-0.221811
H	 0.9424985212	 1.9574843184	-0.2591190257	 0.131864
H	-0.6694029694	 1.8889582137	-0.9914526252	 0.13279
H	-0.498015371	 2.094923273	 0.764954706	 0.130299
H	 0.325187717	-0.3801610375	-0.8480787415	 0.10193
H	 0.3943252336	-0.0088467752	 2.2130001466	 0.099471
H	 1.4957566327	-2.2487844466	 2.2116506297	 0.117689
H	 1.3356309365	-2.3440561734	 0.4008224695	 0.111342
H	 2.7070386128	-0.2502475349	 0.1471982177	 0.111715
H	 2.8872795281	-0.1320370426	 1.9545453313	 0.115012
H	-3.3698404767	-0.9145694431	-0.8569454765	 0.108474
35.0358	76.3136	122.0405	139.8898	176.8386	220.7856	228.2483	293.5686	347.3713	426.8797	514.5172	604.2648	622.165	756.1776	792.1229	832.0309	837.1946	932.4431	948.9781	985.9129	993.5286	1059.1988	1072.6871	1083.2821	1094.2725	1134.1787	1142.7554	1197.4454	1221.6688	1228.2163	1302.487	1333.494	1362.436	1398.8017	1425.0208	1469.937	1495.6719	1499.1573	1507.6416	1800.2432	1822.5052	2919.9421	3040.6153	3045.4975	3116.7785	3123.1698	3128.0288	3133.3741	3160.3043	3207.2945	3222.7354
CC(C1CC1)C(=O)C=O	C[C@@H](C1CC1)C(=O)C=O	
InChI=1S/C7H10O2/c1-5(6-2-3-6)7(9)4-8/h4-6H,2-3H2,1H3	InChI=1S/C7H10O2/c1-5(6-2-3-6)7(9)4-8/h4-6H,2-3H2,1H3/t5-/m0/s1
