18
gdb 32337	4.47896	0.99008	0.86308	3.6009	85.81	-0.2084	-0.0439	0.1645	1361.7283	0.148629	-401.98982	-401.981487	-401.980543	-402.023137	31.429	
C	-0.1799310074	 1.5516504704	 0.0130971016	-0.369015
C	 0.0949257415	 0.0390702088	 0.0514068061	-0.29202
C	 0.7571515396	-0.4790759998	-1.199828644	 0.181877
C	 2.0296412566	-0.9166559017	-1.2078464738	-0.006244
O	 2.6715064151	-1.3757789629	-2.3078600254	-0.239362
C	 2.0434526076	-1.4297888033	-3.5541834068	 0.379741
N	 2.6688940395	-1.8586838758	-4.5739310243	-0.5396
C	 0.6668735891	-0.9749043987	-3.5795028954	-0.148714
C	 0.0573911737	-0.5228133979	-2.465227084	-0.127167
H	 0.7533621368	 2.1146493918	-0.0846115632	 0.123459
H	-0.8188312149	 1.8201949338	-0.8344710556	 0.12164
H	-0.6838174908	 1.8788367561	 0.92767041	 0.11798
H	 0.7247405754	-0.1957801446	 0.9166815105	 0.105702
H	-0.8516562914	-0.494963998	 0.2077440804	 0.110405
H	 2.6738157693	-0.949978994	-0.3366076429	 0.127855
H	 3.6216889745	-2.1262021931	-4.3259736749	 0.218957
H	 0.1717811613	-1.0266249822	-4.5405143458	 0.12491
H	-0.9758609055	-0.1903872489	-2.5049387923	 0.109596
68.758	90.8393	182.1481	207.4566	316.9956	348.5205	387.9898	432.4889	483.4395	543.5918	633.2197	724.2506	738.7203	786.4851	799.4788	833.9928	862.3717	892.485	956.2209	969.8646	1006.3256	1057.4256	1076.9027	1092.8573	1173.3531	1185.3645	1249.3886	1284.5806	1300.4775	1355.6238	1388.0373	1410.5087	1447.3769	1483.3911	1496.8558	1506.3167	1605.5787	1689.528	1738.8884	3019.8237	3037.213	3063.6089	3108.022	3112.6731	3173.3125	3202.6169	3225.2221	3490.0986
CCC1=COC(=N)C=C1	CCC1=COC(=CC1)[NH]	
InChI=1S/C7H9NO/c1-2-6-3-4-7(8)9-5-6/h3-5,8H,2H2,1H3	InChI=1S/C7H10NO/c1-2-6-3-4-7(8)9-5-6/h4-5,8H,2-3H2,1H3
