17
gdb 10547	2.98195	1.49272	1.13069	4.6332	70.02	-0.2689	0.0352	0.3041	1089.6281	0.141159	-363.852077	-363.843452	-363.842508	-363.885712	30.366	
C	-0.147600259	 1.3727013709	-0.0685734729	-0.22714
O	-0.2703545039	-0.0216399201	-0.2367868051	-0.229998
C	 0.7985953555	-0.5840997299	-0.9567005096	-0.128555
C	 0.6394815532	-2.090373233	-0.9599940819	 0.168975
C	-0.355963466	-2.709438611	-1.9279123081	-0.275648
C	 1.1113913063	-2.8707632818	-2.1795997262	-0.3036
C	 0.7940315442	-2.7223587444	 0.3270507377	 0.243294
N	 0.9322328458	-3.2348401573	 1.3547863593	-0.345658
H	 0.7693510449	 1.6370428285	 0.4801819489	 0.112289
H	-0.1359579964	 1.9012596794	-1.034991651	 0.104464
H	-1.0137310527	 1.7064953256	 0.5065734458	 0.135939
H	 0.8072082663	-0.2212421285	-1.9988856313	 0.087476
H	 1.7641678075	-0.3063450915	-0.5033637092	 0.105307
H	-0.9170870706	-3.5695350202	-1.5842992374	 0.144189
H	-0.9185437579	-2.0136572754	-2.5395090412	 0.135157
H	 1.5720977832	-2.2951162986	-2.9746988232	 0.129586
H	 1.5621261095	-3.8394072927	-2.0020031346	 0.143924
66.3634	94.8332	142.192	195.1125	223.3754	241.0013	322.4761	375.2032	417.6446	572.5558	589.1332	719.6645	786.6198	883.9812	941.4722	953.1484	962.3553	1014.7451	1056.9349	1076.3112	1095.4558	1158.2671	1183.3196	1192.8643	1228.7777	1249.6453	1302.1624	1345.672	1419.644	1468.5087	1480.8232	1486.9859	1495.3217	1503.5821	1523.3218	2353.7436	2953.5515	2974.9954	2990.8928	3021.0534	3124.1523	3145.717	3150.6503	3231.8811	3245.6214
COCC1(CC1)C#N	COCC1(CC1)C#N	
InChI=1S/C6H9NO/c1-8-5-6(4-7)2-3-6/h2-3,5H2,1H3	InChI=1S/C6H9NO/c1-8-5-6(4-7)2-3-6/h2-3,5H2,1H3
