21
gdb 70793	2.79851	1.65505	1.41499	1.3208	81.8	-0.2456	0.0804	0.326	1023.1055	0.183597	-387.066416	-387.058586	-387.057642	-387.097927	32.727	
C	 0.015873585	 1.5426043931	-0.0421839189	-0.504499
C	 0.0029040063	 0.0360876449	-0.0723215954	 0.365903
C	 0.4553227628	-0.7909862885	-1.2882725835	-0.355517
C	-0.2938006552	-1.9382658938	-0.5540216407	 0.409011
O	-0.844898432	-3.0347528152	-1.2149907993	-0.494025
C	 0.6260784025	-2.1648722831	 0.6684262711	-0.281699
C	 0.3708333648	-0.7670468494	 1.2662000216	-0.074221
C	-1.1496356448	-0.8493699864	 1.5769159655	-0.24883
C	-1.2819198158	-0.8586025032	 0.0492731716	-0.099173
H	 1.0434932218	 1.9256328152	-0.0317834122	 0.115538
H	-0.4845652394	 1.9623511142	-0.9217548719	 0.115208
H	-0.4879620099	 1.9351238306	 0.8482061691	 0.116131
H	-0.0772140948	-0.4697582877	-2.189124416	 0.095111
H	 1.5225832631	-0.9162870962	-1.5058222935	 0.077461
H	-0.1284737094	-3.6249751066	-1.4730197789	 0.27617
H	 0.2856761124	-2.9727453849	 1.3230438183	 0.094182
H	 1.6655523691	-2.3531028307	 0.3802334133	 0.0824
H	 1.086596027	-0.372086909	 1.988447889	 0.057162
H	-1.5040268162	-1.7059479751	 2.1591547503	 0.090179
H	-1.550412114	 0.0733042471	 2.005528887	 0.095981
H	-2.2007694233	-0.6687861254	-0.5049421163	 0.067528
206.0516	213.8472	226.9564	262.8498	278.7251	373.6771	434.0516	480.7358	493.7473	574.4257	596.488	666.8647	715.3617	806.1892	844.0447	874.4362	881.7975	917.5221	948.0646	968.0854	990.6762	1002.8059	1013.1184	1028.3043	1072.6236	1100.0073	1128.3187	1148.4971	1162.0026	1188.8001	1192.9919	1205.5212	1218.9141	1254.8737	1265.4446	1285.5103	1332.4345	1335.2581	1378.9011	1414.3315	1486.0059	1490.2447	1492.007	1502.0525	1521.1291	3020.1618	3026.4413	3041.6647	3046.3808	3080.7445	3088.2237	3091.2244	3093.1974	3099.6213	3103.994	3122.2064	3801.1814
CC12CC3(O)CC1CC23	C[C@@]12C[C@@]3(O)C[C@@H]1C[C@@H]23	
InChI=1S/C8H12O/c1-7-4-8(9)3-5(7)2-6(7)8/h5-6,9H,2-4H2,1H3	InChI=1S/C8H12O/c1-7-4-8(9)3-5(7)2-6(7)8/h5-6,9H,2-4H2,1H3/t5-,6-,7+,8-/m0/s1
