19
gdb 15072	2.4296	1.93173	1.19867	3.5768	72.96	-0.2376	0.0289	0.2666	1046.6605	0.164921	-365.070343	-365.061573	-365.060629	-365.1044	31.553	
C	-0.4827382733	 1.1405530273	 0.538784455	-0.373971
C	 0.2704529926	-0.1437755765	 0.1820820546	-0.155285
N	 0.6504754904	-0.2623626905	-1.2248111908	-0.050018
C	 1.9797938428	-0.2583604403	-1.5640162307	 0.150443
O	 2.4524763147	-0.4838953053	-2.6557172285	-0.336696
C	-0.3669065046	-0.6768461971	-2.1530937455	 0.041752
C	-1.3999409706	 0.3093128764	-2.6650551815	-0.273489
C	-0.336984033	-0.2276289383	-3.583830471	-0.26572
H	 0.1060895926	 2.0231926163	 0.2711565265	 0.123515
H	-1.4450179496	 1.1998369356	 0.0258813535	 0.133833
H	-0.6740464812	 1.1702059005	 1.6163341547	 0.118424
H	 1.1879634363	-0.2034449175	 0.7765175137	 0.114986
H	-0.335364186	-1.0181631859	 0.4552387068	 0.109119
H	 2.6086257349	 0.0048917958	-0.6885849793	 0.067699
H	-0.7274667842	-1.6880775803	-1.9676540439	 0.096749
H	-2.4214618007	-0.039360896	-2.7705526233	 0.113149
H	-1.3042377789	 1.3418297382	-2.3516121986	 0.119365
H	 0.4655794931	 0.4331411044	-3.8787766184	 0.146733
H	-0.6111549152	-0.9599798868	-4.3342967732	 0.119409
49.1073	62.6047	146.2724	210.503	244.5536	269.9842	331.3841	367.8379	423.1572	484.312	649.9722	731.1373	786.7601	804.4374	829.1642	926.5479	959.0917	988.8365	1030.2841	1062.0065	1079.1375	1089.7766	1117.8317	1125.1439	1145.8306	1195.2582	1205.5982	1250.5073	1300.8756	1387.5641	1403.8857	1412.4659	1435.3517	1450.9295	1467.4996	1486.1139	1492.3565	1504.6664	1510.6288	1800.5723	2914.2962	3015.924	3043.236	3071.0158	3101.1713	3110.8786	3132.746	3140.0413	3158.6214	3227.1234	3256.8919	49.108	62.6039	146.2724	210.503	244.5541	269.984	331.3842	367.8379	423.1573	484.3119	649.9722	731.1372	786.7603	804.4375	829.1642	926.5478	959.0916	988.8364	1030.2831	1062.0067	1079.1377	1089.7765	1117.8317	1125.1441	1145.8306	1195.2584	1205.5982	1250.5073	1300.8752	1387.5639	1403.8856	1412.4658	1435.3516	1450.9287	1467.4999	1486.1135	1492.3562	1504.6665	1510.6287	1800.572	2914.296	3015.9239	3043.236	3071.0158	3101.1713	3110.8786	3132.746	3140.0413	3158.6213	3227.1234	3256.8919
CCN(C=O)C1CC1	CCN(C=O)C1CC1	
InChI=1S/C6H11NO/c1-2-7(5-8)6-3-4-6/h5-6H,2-4H2,1H3	InChI=1S/C6H11NO/c1-2-7(5-8)6-3-4-6/h5-6H,2-4H2,1H3
