15
gdb 11104	4.94875	1.15582	1.13915	3.862	64.32	-0.2496	-0.0414	0.2082	1057.8115	0.118148	-399.811727	-399.803839	-399.802895	-399.845464	26.627	
O	-0.8489570108	 1.6363678697	-0.4521519193	-0.229983
C	 0.021865271	 1.2877997807	 0.3025640863	 0.149088
C	 1.4596840227	 1.7343129651	 0.2187880391	-0.115349
C	 1.7787266748	 2.8030212239	-0.8594944911	-0.195629
N	 2.139023176	 3.7237687551	 0.2257352126	-0.03684
C	 1.8609780066	 2.789354231	 1.3125903318	-0.186909
C	 2.2835987051	 5.0671773649	 0.2908051107	 0.133413
O	 2.3753576874	 5.693131968	 1.3265146707	-0.32686
H	-0.1950939097	 0.6038466439	 1.1538411169	 0.089284
H	 2.1097722986	 0.8555671742	 0.2173747842	 0.110329
H	 2.6067566205	 2.5559961019	-1.5309747819	 0.120183
H	 0.9027635361	 3.1033131187	-1.4418224619	 0.146332
H	 1.0554519302	 3.1183905441	 1.9782790559	 0.136516
H	 2.7353387177	 2.528719484	 1.91585833	 0.131775
H	 2.3214560938	 5.5299553849	-0.7165056141	 0.07465
33.9401	90.9045	119.1722	187.117	257.0859	317.3789	344.9169	531.3549	647.0147	752.5195	820.1894	884.7909	913.759	942.2367	1005.471	1034.6907	1080.3032	1120.8776	1143.6377	1172.0321	1186.6401	1231.2053	1286.468	1314.7795	1350.5808	1395.7839	1421.9153	1447.563	1508.3976	1525.0259	1791.7555	1829.4937	2882.5502	2928.5336	3040.637	3046.6163	3079.7593	3092.4132	3101.6529
O=CC1CN(C1)C=O	O=CC1CN(C1)C=O	
InChI=1S/C5H7NO2/c7-3-5-1-6(2-5)4-8/h3-5H,1-2H2	InChI=1S/C5H7NO2/c7-3-5-1-6(2-5)4-8/h3-5H,1-2H2
