19
gdb 116064	3.5821	1.05194	0.84913	3.8449	72.15	-0.2654	0.0072	0.2725	1355.6293	0.159402	-460.209047	-460.200257	-460.199313	-460.243047	32.161	
C	-0.1320768743	 1.5675471822	 0.0062342982	-0.391595
C	 0.027705411	 0.0454314069	-0.0060610049	-0.196006
C	 0.734270434	-0.4756763815	-1.2504837562	 0.111572
C	 0.9633069017	-1.9882849559	-1.2377057299	-0.350572
C	 1.3099326445	-2.5752002513	-2.5999417227	 0.402296
O	 1.8186767753	-3.651749606	-2.7408653801	-0.31879
O	 0.9415601554	-1.8581004115	-3.6927191346	-0.229123
C	 0.5844375903	-0.4726569676	-3.5629516414	 0.020304
O	-0.0777442418	-0.1709894259	-2.3883476526	-0.232339
H	 0.842411817	 2.0682091016	-0.0029476891	 0.114863
H	-0.6920839112	 1.9044193762	-0.8697663963	 0.136172
H	-0.6671692205	 1.8967856801	 0.9013573546	 0.118464
H	 0.5974596535	-0.285709652	 0.8706174039	 0.105731
H	-0.9546039945	-0.4389360183	 0.0546055814	 0.111972
H	 1.7019425094	 0.0430810002	-1.3673545305	 0.076465
H	 1.7488792388	-2.2825532595	-0.5377987077	 0.138107
H	 0.0410321068	-2.4895133989	-0.9180001744	 0.145139
H	 1.512393474	 0.1136168034	-3.660629934	 0.1031
H	-0.0879834195	-0.2595034322	-4.3954556036	 0.134239
71.9417	111.6791	117.6728	179.6408	223.6877	296.7518	341.5651	421.7313	454.9089	487.5072	542.5315	615.2615	744.5388	769.9131	804.1736	867.9458	941.1339	973.9682	1019.5937	1047.0797	1071.6705	1110.3442	1130.2657	1138.1452	1177.3244	1229.3745	1264.8579	1286.0165	1290.5758	1317.8763	1355.5539	1388.8775	1409.4431	1415.5701	1450.4386	1461.2654	1476.0954	1497.7349	1508.8139	1521.2848	1853.5413	2953.1585	2976.4365	3031.092	3039.9934	3043.615	3069.1576	3106.8586	3113.7264	3120.848	3126.1222
CCC1CC(=O)OCO1	CC[C@H]1CC(=O)OCO1	
InChI=1S/C6H10O3/c1-2-5-3-6(7)9-4-8-5/h5H,2-4H2,1H3	InChI=1S/C6H10O3/c1-2-5-3-6(7)9-4-8-5/h5H,2-4H2,1H3/t5-/m0/s1
