17
gdb 9604	3.7516	1.39066	1.18988	3.1783	71.82	-0.2364	0.0408	0.2772	1043.2754	0.139853	-363.800035	-363.791042	-363.790097	-363.833189	32.894	
C	-0.3608866204	 1.8235272499	 0.4260330056	-0.451668
C	-0.118198274	 0.3947051695	-0.0022651655	 0.298204
C	-1.3038720361	-0.2506863171	-0.7003246145	-0.151404
O	-0.9276868904	-1.5390626105	-1.1616796701	-0.419327
N	 1.2225897516	 0.0965159989	-0.5074737915	-0.365724
C	 0.7887346029	-0.5018397706	 0.7879913636	-0.29208
C	 1.456667109	-0.0752526713	 1.9858647442	 0.363448
C	 1.9944572847	 0.2586924651	 3.0085731894	-0.413985
H	 0.5119796651	 2.2159252652	 0.9493823258	 0.146827
H	-0.5536072497	 2.4580636999	-0.4461261973	 0.11709
H	-1.2248392092	 1.8916855006	 1.0966641966	 0.115362
H	-2.1522655937	-0.3056954525	-0.0005298853	 0.101478
H	-1.6093044684	 0.3933977038	-1.540970797	 0.097932
H	-1.6669699052	-1.9233411019	-1.63999154	 0.29773
H	 1.147779914	-0.6343817478	-1.2136694402	 0.243017
H	 0.5316199039	-1.5571360029	 0.7595350853	 0.121245
H	 2.4802915858	 0.5550163817	 3.904823901	 0.191852
108.4912	135.0923	148.6942	180.2907	213.7305	249.6187	325.0452	357.8242	378.3481	496.2448	548.1202	587.2787	602.0536	649.5509	706.7349	818.6124	889.7925	958.0225	972.4309	1006.3589	1075.1729	1083.3732	1108.6736	1143.8776	1206.3629	1225.9321	1263.1886	1315.3831	1353.8534	1419.9063	1437.1171	1455.7717	1487.9668	1494.863	1518.0737	2237.3733	2967.489	2999.9901	3034.1502	3093.6323	3143.1354	3149.3073	3487.0305	3504.8812	3849.4354
CC1(CO)NC1C#C	C[C@@]1(CO)N[C@H]1C#C	
InChI=1S/C6H9NO/c1-3-5-6(2,4-8)7-5/h1,5,7-8H,4H2,2H3	InChI=1S/C6H9NO/c1-3-5-6(2,4-8)7-5/h1,5,7-8H,4H2,2H3/t5-,6-/m0/s1
