13
gdb 25052	5.80869	1.04397	0.88493	3.6018	80.83	-0.2268	-0.0685	0.1583	1203.4105	0.090266	-415.630433	-415.62315	-415.622206	-415.662259	27.667	
O	-0.0309927416	-0.0923704926	 0.0031279801	-0.378655
C	 0.000189128	 1.1225109187	 0.0091838099	 0.411052
N	-1.1724417339	 1.892549801	 0.0288698568	-0.339007
C	-1.1880254269	 3.2497365704	 0.0363668892	-0.048733
C	-0.0065325687	 3.9418948708	 0.0244514061	 0.131627
N	 1.1997005154	 3.2665703552	 0.0049054288	-0.265894
C	 1.1973046492	 1.9722010157	-0.0020087742	-0.119332
C	 0.0119620288	 5.3643463293	 0.0318411756	 0.238859
C	 0.0153798312	 6.56790273	 0.0382711956	-0.394854
H	-2.0367278525	 1.3667009648	 0.0374751604	 0.274467
H	-2.1547062159	 3.7365965197	 0.0517750575	 0.152844
H	 2.1500754783	 1.4476197831	-0.0173851882	 0.139071
H	 0.0292075186	 7.6297510139	 0.0438314724	 0.198555
90.2943	149.2561	224.1798	403.5125	419.9356	439.9738	450.7175	529.7241	540.1534	579.0957	642.9067	678.049	739.1339	743.007	788.0116	826.9244	900.1968	949.2486	979.7724	1156.7553	1226.7185	1279.9285	1306.0984	1387.7372	1467.9226	1568.8368	1645.0328	1795.0707	2233.0815	3163.2868	3219.2171	3502.6962	3595.5371
O=C1NC=C(N=C1)C#C	O=c1[nH]cc(nc1)C#C	
InChI=1S/C6H4N2O/c1-2-5-3-8-6(9)4-7-5/h1,3-4H,(H,8,9)	InChI=1S/C6H4N2O/c1-2-5-3-8-6(9)4-7-5/h1,3-4H,(H,8,9)
