19
gdb 111422	1.91238	1.78203	1.07723	3.2511	71.31	-0.2433	0.0602	0.3035	1156.0543	0.158161	-460.099683	-460.090734	-460.089789	-460.133712	32.816	
C	 0.1558709273	 1.3424747008	 0.0906350032	-0.24344
O	-0.2988433243	 0.0487188494	-0.2507127734	-0.243002
C	 0.4718176748	-0.5816358599	-1.240946422	 0.097377
C	 1.8839809341	-1.0858236268	-0.8784196576	-0.018408
O	 1.7487706617	-2.0709103466	 0.1484225077	-0.232982
C	 1.4936465352	-2.4715017244	-1.201109503	 0.006289
C	 0.0468447029	-2.0672285572	-1.5328520998	-0.099523
C	-1.0695553902	-2.6432540996	-0.6647709066	-0.075311
O	-2.2848107788	-1.9385378916	-0.855044666	-0.432558
H	 1.1699885609	 1.3145354505	 0.5125698837	 0.120466
H	 0.1567963183	 2.0121326714	-0.7828698527	 0.109933
H	-0.5287532026	 1.7391207214	 0.8430417419	 0.135868
H	 0.4991459237	 0.0236240905	-2.1597320202	 0.074714
H	 2.8426611868	-0.5878175643	-0.9678122015	 0.105846
H	 2.0908956926	-3.2820590451	-1.6014684887	 0.109714
H	-0.1922800802	-2.1924596365	-2.5922178987	 0.085254
H	-1.2615790649	-3.684085078	-0.9487582051	 0.100737
H	-0.7537035583	-2.6330251918	 0.3856099384	 0.109482
H	-2.1124639791	-1.042211022	-0.5409258395	 0.289543
73.1428	119.8546	137.9681	166.924	200.3094	244.4949	292.3393	360.0068	496.2199	517.451	557.9738	662.9088	730.556	810.6685	854.2796	876.3988	906.5737	942.9062	982.1367	1019.6322	1042.0318	1057.4121	1078.3063	1125.7457	1161.4985	1174.1746	1182.5722	1224.5204	1239.9098	1242.2913	1255.3789	1285.2463	1331.1444	1375.5598	1381.6062	1406.3718	1441.8752	1483.3206	1488.3267	1507.1165	1508.1106	2984.0805	2992.0954	3026.5103	3041.8912	3066.8736	3085.5046	3125.9737	3179.0278	3196.3551	3781.0942
COC1C2OC2C1CO	CO[C@H]1[C@H]2O[C@H]2[C@H]1CO	
InChI=1S/C6H10O3/c1-8-4-3(2-7)5-6(4)9-5/h3-7H,2H2,1H3	InChI=1S/C6H10O3/c1-8-4-3(2-7)5-6(4)9-5/h3-7H,2H2,1H3/t3-,4+,5-,6+/m0/s1
