20
gdb 87432	4.25884	1.24777	1.13919	1.6063	84.54	-0.2319	0.0896	0.3215	1150.6057	0.170996	-365.896892	-365.889205	-365.888261	-365.928815	30.953	
C	-0.0729143525	 1.5529723742	-0.1258798304	-0.404449
C	 0.006528126	 0.0473042599	 0.002803674	-0.100624
C	 1.3313370945	-0.6819149745	-0.2324036834	-0.393079
C	 0.732193244	-0.5992136797	 1.129049968	 0.436303
C	 1.2265669228	-0.1596409019	 2.4877719788	-0.184757
C	-0.0599910961	-0.7813098609	 3.1192984375	 0.007137
C	 0.7115804892	-1.6546794496	 4.1122224062	-0.264802
C	 1.5323986859	-1.6552370823	 2.8198113146	 0.008714
N	 0.2444046653	-1.7656032482	 1.9481445655	-0.213261
H	 0.8338213911	 2.0305457003	 0.2608037652	 0.11206
H	-0.1852863235	 1.8570614276	-1.1724254596	 0.118355
H	-0.9241107387	 1.9584548385	 0.4326384176	 0.116373
H	-0.8726799858	-0.4918288657	-0.3436172976	 0.092797
H	 1.3006166836	-1.6372882035	-0.7463623936	 0.117827
H	 2.2088509037	-0.0791791413	-0.4498393939	 0.107906
H	 1.7770305301	 0.7325192079	 2.803206969	 0.066927
H	-1.045247338	-0.3206351454	 3.2038950029	 0.08374
H	 1.1504932465	-1.1520717498	 4.9776659847	 0.098727
H	 0.2428155086	-2.6033709671	 4.3864073354	 0.109685
H	 2.4246701935	-2.2224703686	 2.551435199	 0.084422
126.516	154.4989	186.8556	228.5297	320.7093	405.0371	458.3224	519.6441	590.9408	707.85	802.6471	815.2741	828.4403	843.963	855.3867	874.2615	891.0749	923.0791	973.3312	999.6242	1023.8063	1027.2689	1036.0375	1041.9717	1084.5125	1120.4219	1125.897	1132.7814	1148.2284	1160.4236	1180.4948	1182.5944	1216.1136	1229.2281	1234.546	1309.498	1352.118	1413.3548	1431.3948	1491.6824	1493.1634	1495.4707	1515.7796	3025.01	3050.3159	3057.5984	3087.1823	3091.7275	3104.5766	3110.8602	3117.5437	3123.0142	3133.0475	3204.7408
CC1CC11C2C3CC2N13	C[C@H]1C[C@]21[C@H]1[C@@H]3C[C@H]1N23	
InChI=1S/C8H11N/c1-4-3-8(4)7-5-2-6(7)9(5)8/h4-7H,2-3H2,1H3	InChI=1S/C8H11N/c1-4-3-8(4)7-5-2-6(7)9(5)8/h4-7H,2-3H2,1H3/t4-,5-,6+,7-,8-/m0/s1
