14
gdb 129970	5.81531	0.98707	0.89177	3.0475	64.58	-0.2472	-0.0116	0.2356	1244.4666	0.101673	-469.983446	-469.975762	-469.974818	-470.016916	27.867	
N	 0.0668044206	 1.304529222	 0.3639611359	-0.595138
C	-0.0498452554	-0.0062121788	 0.0401651981	 0.500663
N	-1.0900223592	-0.7806711309	 0.195767913	-0.393191
C	-0.6374555423	-1.9540179075	-0.3584022657	 0.386166
N	 0.5795117375	-1.9229707277	-0.8349872882	-0.196433
O	 0.991984821	-0.5957699808	-0.5562603854	-0.207106
C	-1.4780527049	-3.1740349759	-0.3955689733	-0.042092
C	-0.9991813918	-4.4240333711	-0.9987170063	-0.168348
O	-1.0515406018	-4.2763989561	 0.4175632851	-0.221987
H	 1.0002464147	 1.6724158629	 0.4533631851	 0.279304
H	-0.6113962611	 1.6486715896	 1.0242502438	 0.283909
H	-2.5449907169	-2.9677417613	-0.3498617264	 0.113169
H	-1.724672873	-5.113127954	-1.4284352313	 0.117926
H	-0.0009044574	-4.4504036305	-1.4291921343	 0.143158
22.5953	143.7256	176.3929	287.1572	341.0665	382.7556	434.5371	461.9789	485.1797	648.1885	741.3123	765.1323	796.5999	854.7915	904.4519	914.3599	992.2401	1026.4444	1065.1041	1099.165	1120.9243	1162.6287	1172.6225	1283.3522	1314.2694	1410.0121	1481.9178	1525.1702	1574.8834	1604.2793	1686.8794	3092.6727	3144.4026	3189.5754	3603.2887	3719.1719
NC1=NC(=NO1)C1CO1	Nc1nc(no1)[C@H]1CO1	
InChI=1S/C4H5N3O2/c5-4-6-3(7-9-4)2-1-8-2/h2H,1H2,(H2,5,6,7)	InChI=1S/C4H5N3O2/c5-4-6-3(7-9-4)2-1-8-2/h2H,1H2,(H2,5,6,7)/t2-/m1/s1
