17
gdb 43960	3.01342	1.66442	1.44782	3.3706	77.37	-0.2268	-0.0076	0.2192	950.0227	0.137305	-384.679023	-384.672107	-384.671162	-384.710176	28.2	
O	-0.0681961052	 0.0059676235	-0.1242644992	-0.310964
C	-0.0267268764	 1.1876083293	 0.0650107321	 0.359415
C	-1.1404291434	 2.2716844319	 0.1993831679	-0.417465
C	-0.0431338608	 3.325306164	-0.0514615361	 0.257022
C	 0.9665249843	 3.2661028903	 1.03410525	-0.353739
C	 1.0647560244	 2.2186419625	-0.0727981117	 0.102497
C	 1.9297964289	 2.5325464798	-1.2395509543	-0.175949
C	 1.4720202118	 3.6178821743	-1.8800020796	-0.059669
C	 0.1873784277	 4.1913110448	-1.2825180458	-0.356411
H	-1.8523209569	 2.1604017933	-0.6240969484	 0.133102
H	-1.693198539	 2.3431172685	 1.1406900343	 0.119527
H	 1.7725206492	 3.9914411041	 1.01496326	 0.131393
H	 0.6572324583	 2.9630696682	 2.0303100264	 0.124081
H	 2.8111042427	 1.9676887287	-1.517608543	 0.110939
H	 1.9588108543	 4.0799771532	-2.7332115764	 0.100308
H	-0.647536393	 4.1144241386	-1.9917582254	 0.117352
H	 0.2883258229	 5.257203765	-1.0441603707	 0.118561
99.8113	206.0496	311.0937	380.1506	391.6011	494.2567	540.4098	599.1055	600.6913	663.8283	722.8369	754.8175	786.7306	856.3263	876.7762	919.6231	931.9134	948.3176	967.7415	979.2984	996.3496	1070.307	1090.3115	1105.847	1135.8756	1174.1989	1204.7986	1257.3859	1267.7271	1323.3793	1354.7619	1370.0896	1451.5491	1476.3193	1490.1494	1637.7745	1870.7502	3019.6397	3050.1214	3052.2838	3108.3913	3121.6344	3180.4418	3213.6176	3214.8683
O=C1CC23CC12C=CC3	O=C1C[C@@]23C[C@@]12C=CC3	
InChI=1S/C8H8O/c9-6-4-7-2-1-3-8(6,7)5-7/h1,3H,2,4-5H2	InChI=1S/C8H8O/c9-6-4-7-2-1-3-8(6,7)5-7/h1,3H,2,4-5H2/t7-,8-/m0/s1
