13
gdb 20349	5.18276	2.13377	1.52568	3.8107	65.55	-0.2463	-0.0308	0.2155	762.3892	0.098357	-361.461789	-361.456347	-361.455403	-361.491162	21.701	
C	-0.0676422156	 1.5333676145	 0.0109314855	-0.422899
C	 1.4155347307	 1.8906517644	-0.0012094616	-0.068647
C	 2.2149838874	 0.8072735933	-0.0147716783	-0.181387
C	 1.3622975791	-0.3761679878	-0.013183164	 0.382785
N	 1.5191555316	-1.6746656585	-0.0217860877	-0.259753
O	 0.2027437674	-2.1680212611	-0.0121367696	-0.179763
C	-0.6756012196	-1.1362543224	 0.0020352881	-0.079219
C	-0.0038415046	 0.0345012072	 0.0020746806	 0.14747
H	-0.5701684295	 1.9428256156	 0.8964561427	 0.138184
H	-0.5868806482	 1.9524991523	-0.8603107481	 0.138184
H	 1.7565894685	 2.9187520817	 0.0012220058	 0.112734
H	 3.2958302609	 0.8019747131	-0.02506301	 0.122134
H	-1.7154676579	-1.4231825223	 0.0103493266	 0.150177
231.8511	272.8173	437.7178	459.5921	587.6918	660.3257	706.5758	710.1955	783.4814	828.1868	857.0142	884.8718	921.8784	954.7451	965.6119	973.3351	1097.2762	1106.3437	1156.7169	1163.7711	1248.4389	1295.0503	1350.77	1405.9527	1455.8449	1561.9778	1608.4128	1681.9285	3030.208	3056.4882	3210.5796	3242.6509	3265.4047
C1C=CC2=NOC=C12	C1C=Cc2nocc12	
InChI=1S/C6H5NO/c1-2-5-4-8-7-6(5)3-1/h1,3-4H,2H2	InChI=1S/C6H5NO/c1-2-5-4-8-7-6(5)3-1/h1,3-4H,2H2
