19
gdb 92924	2.42793	1.33665	1.01814	1.3794	82.61	-0.2478	0.0152	0.2631	1214.625	0.159255	-385.868769	-385.860044	-385.859099	-385.901983	33.87	
O	-0.0792828692	 1.4875903135	 0.1028336002	-0.440875
C	 0.0362228983	 0.0716473167	 0.0530708567	 0.126649
C	 0.7328469749	-0.4929790666	 1.2979369091	-0.279859
C	 0.5422600068	-1.9818378161	 1.4262150352	-0.055488
C	-0.370287609	-2.6709231432	 0.7450424824	-0.051984
C	-1.3457676024	-2.0312159578	-0.2294965428	-0.225323
C	-1.3753266544	-0.4932097753	-0.0603037303	-0.215611
C	-1.0335523845	-2.4321608929	-1.6049612138	 0.354214
C	-0.7719521701	-2.7598901591	-2.7319700601	-0.499108
H	 0.8080710725	 1.8579019746	 0.1470475733	 0.27947
H	 0.6024598312	-0.235279685	-0.8406339594	 0.081018
H	 1.8054789396	-0.2563206731	 1.2726638452	 0.095016
H	 0.330869821	 0.0218589177	 2.1826845177	 0.116923
H	 1.1971810477	-2.5050008052	 2.1189470073	 0.090745
H	-0.4450716627	-3.7485328967	 0.8585522211	 0.09761
H	-2.3512975357	-2.4123918961	-0.0021669278	 0.111149
H	-1.9285452291	-0.2457588266	 0.8530143781	 0.104185
H	-1.8947112801	-0.0268394829	-0.900862763	 0.115652
H	-0.5432574547	-3.0514636661	-3.7269928891	 0.195616
86.0104	113.8185	184.8143	245.2509	277.1598	342.5303	367.8213	419.0743	443.1469	469.4391	545.6642	600.3169	619.0747	637.2007	726.4565	770.6499	816.6614	898.6904	927.2074	951.2793	973.4913	1005.1035	1056.5053	1081.2889	1093.8515	1111.0211	1165.3091	1189.1414	1232.2748	1270.0782	1308.7703	1315.9766	1333.3059	1347.5374	1386.1847	1410.076	1443.5871	1475.6605	1494.4662	1723.4441	2230.0612	2976.7989	3002.0365	3003.5307	3034.2636	3046.8662	3106.6944	3148.9231	3176.7654	3504.4543	3815.1925
OC1CC=CC(C1)C#C	O[C@H]1CC=C[C@@H](C1)C#C	
InChI=1S/C8H10O/c1-2-7-4-3-5-8(9)6-7/h1,3-4,7-9H,5-6H2	InChI=1S/C8H10O/c1-2-7-4-3-5-8(9)6-7/h1,3-4,7-9H,5-6H2/t7-,8-/m0/s1
