18
gdb 82727	2.82035	1.85833	1.37374	3.8644	75.41	-0.2288	0.0256	0.2544	965.9287	0.149936	-401.959305	-401.952027	-401.951083	-401.990893	28.721	
C	-0.0701805387	 1.4066170715	-0.0527596688	-0.349121
N	-0.0276514259	-0.0121909465	 0.2235048727	-0.063352
C	-1.1960498984	-0.8680783708	 0.0795001262	-0.038911
C	-1.2971357896	-1.4242013846	-1.3868394168	-0.248068
C	-0.4702196551	-2.6194480677	-0.9177707132	-0.066639
C	-0.7132018016	-2.2764932788	 0.5323940962	-0.081591
C	 0.6897013229	-2.191986754	 0.0059125199	-0.171897
C	 1.1239139635	-0.7512042535	 0.0097740977	 0.414834
O	 2.2430670548	-0.3037657609	-0.1289217891	-0.402205
H	 0.9562027955	 1.7769661936	-0.0214676029	 0.16314
H	-0.4921261223	 1.6238000299	-1.0444547764	 0.117726
H	-0.6691845667	 1.9300415963	 0.6999343586	 0.121966
H	-2.0877874635	-0.4300180231	 0.5254114615	 0.084757
H	-2.3181008108	-1.7329261874	-1.6270422172	 0.108858
H	-0.9065086773	-0.7850978155	-2.1858910705	 0.103421
H	-0.4283545949	-3.5958007293	-1.38431912	 0.098434
H	-1.0454226749	-2.8655058522	 1.3763220382	 0.098968
H	 1.424609033	-2.9510133569	 0.238037324	 0.109682
139.3014	156.6119	170.6482	287.9129	360.0551	443.8203	465.1327	593.4664	668.2535	689.445	781.7415	804.8885	814.4931	840.3882	877.3213	907.1491	959.6508	977.4514	1002.6786	1032.2301	1043.9338	1066.8417	1092.7588	1140.1392	1153.0307	1164.1656	1189.6955	1229.6031	1244.4041	1271.4997	1296.3105	1321.5857	1367.3304	1409.4998	1447.7536	1489.1045	1493.0317	1515.5135	1811.9866	3001.7656	3041.7886	3069.0707	3102.2595	3124.5069	3139.7247	3190.7404	3205.698	3218.1268
CN1C2CC3C2C3C1=O	CN1[C@H]2C[C@@H]3[C@H]2[C@@H]3C1=O	
InChI=1S/C7H9NO/c1-8-4-2-3-5(4)6(3)7(8)9/h3-6H,2H2,1H3	InChI=1S/C7H9NO/c1-8-4-2-3-5(4)6(3)7(8)9/h3-6H,2H2,1H3/t3-,4+,5-,6-/m1/s1
