20
gdb 90546	4.22037	1.03057	0.93077	3.2627	79.54	-0.2232	-0.0216	0.2015	1301.3356	0.17061	-403.113423	-403.104827	-403.103883	-403.147377	32.138	
C	 0.501020468	 1.6309537363	-0.2494384199	-0.414829
C	 0.0388743631	 0.2167638471	 0.068487059	 0.027133
C	 0.6105916113	-0.9685156666	-0.7603923513	-0.194111
N	 0.9346954975	-1.7404169864	 0.4839109849	-0.154247
C	 2.3598106881	-1.5867756608	 0.915097903	-0.041982
C	 2.0423038114	-0.3329302017	 1.7619463685	-0.2829
C	 0.5699697573	-0.5223704576	 1.3259407211	 0.014896
C	 2.7852981789	-2.8217619907	 1.6832788935	 0.151516
O	 3.2497559964	-2.8171584093	 2.7940080674	-0.243123
H	 1.5925821174	 1.7064572884	-0.2876633691	 0.117145
H	 0.1169202938	 1.952040652	-1.2237395777	 0.120961
H	 0.1418634685	 2.3449445851	 0.4997051362	 0.12143
H	-1.0550243554	 0.1878204026	 0.0697100784	 0.083642
H	-0.1014644709	-1.4898545342	-1.4064792855	 0.107236
H	 1.4971369924	-0.7187544965	-1.3577315141	 0.094502
H	 3.0589814292	-1.4551854514	 0.0764370814	 0.090323
H	 2.2332498655	-0.4779761336	 2.8265791605	 0.131886
H	 2.5222979916	 0.5927222522	 1.4402202289	 0.107206
H	-0.1486714775	-0.6764801719	 2.1355238004	 0.079876
H	 2.6008391034	-3.767115843	 1.1259663744	 0.083439
46.4043	85.1187	147.837	226.9739	267.0348	298.4712	347.827	366.1595	474.1021	621.8762	651.6514	759.413	768.195	834.2927	853.3498	894.5872	904.5734	944.0721	966.001	976.1253	1024.9079	1039.773	1074.8936	1116.5894	1125.4979	1150.9893	1168.8244	1203.2933	1215.3428	1245.6446	1256.3104	1283.5077	1304.6634	1326.973	1358.7651	1371.9137	1406.1518	1413.9556	1480.1909	1495.7196	1503.2079	1508.2388	1829.1033	2890.7687	3002.4507	3016.2792	3030.7375	3049.3424	3065.8078	3079.8667	3082.0717	3096.3285	3102.3421	3134.6958
CC1CN2C(CC12)C=O	C[C@H]1CN2[C@@H](C[C@@H]12)C=O	
InChI=1S/C7H11NO/c1-5-3-8-6(4-9)2-7(5)8/h4-7H,2-3H2,1H3	InChI=1S/C7H11NO/c1-5-3-8-6(4-9)2-7(5)8/h4-7H,2-3H2,1H3/t5-,6-,7-/m0/s1
