16
gdb 131479	3.95479	1.18294	1.01232	5.407	71.58	-0.2357	0.0045	0.2402	1148.176	0.126374	-434.046828	-434.039351	-434.038406	-434.07913	28.544	
O	-0.4538171038	 0.3767949829	 1.9503523738	-0.418437
C	-0.0578854949	-0.0850533342	 0.6885434799	 0.094132
C	-0.6501408571	-1.3803888296	 0.2549093434	-0.31446
C	-1.0672297537	-0.0933637353	-0.4538311142	-0.170408
C	-2.4159397006	 0.4664423569	-0.2907043549	 0.368514
C	-3.3157838822	 0.9871469003	-1.1973476126	-0.171022
N	-4.4427360809	 1.3749383967	-0.5384489083	-0.189592
N	-4.3003687366	 1.1279069784	 0.7313523657	-0.118394
N	-3.0806141654	 0.5746067891	 0.8890261659	-0.257961
H	-0.3663011965	 1.3370227958	 1.9582452283	 0.300058
H	 0.9804164519	 0.1207345849	 0.4350493697	 0.107335
H	-0.0308987409	-2.0871894405	-0.2847298417	 0.130201
H	-1.3807592325	-1.8266118544	 0.9207226401	 0.135301
H	-0.660681964	 0.0558697162	-1.4484081288	 0.106448
H	-3.2155631178	 1.0968974207	-2.2651869879	 0.117568
H	-2.7242595749	 0.3513314522	 1.8058945617	 0.280715
79.5964	150.5171	172.3416	283.1628	365.731	399.9032	450.8129	527.5208	643.681	685.7408	734.5221	748.2024	771.5624	838.0809	849.6379	937.9899	997.0331	1000.4067	1036.771	1057.7941	1072.8	1086.4693	1123.2395	1136.1158	1168.2774	1221.6974	1246.2073	1287.5467	1299.909	1368.4917	1390.6832	1426.8952	1443.5708	1487.6451	1612.3978	3120.1257	3141.3845	3168.3715	3233.1421	3267.4669	3642.525	3795.9684
OC1CC1C1=CN=NN1	O[C@H]1C[C@H]1c1cnn[nH]1	
InChI=1S/C5H7N3O/c9-5-1-3(5)4-2-6-8-7-4/h2-3,5,9H,1H2,(H,6,7,8)	InChI=1S/C5H7N3O/c9-5-1-3(5)4-2-6-8-7-4/h2-3,5,9H,1H2,(H,6,7,8)/t3-,5-/m0/s1
