20
gdb 119742	3.49171	0.99283	0.88447	2.3123	74.68	-0.2249	0.0649	0.2899	1358.01	0.171	-440.226284	-440.217343	-440.216399	-440.260442	33.257	
O	 0.174724725	 1.407121578	-0.1267326578	-0.418648
C	 0.0693715719	-0.0038041486	-0.0163197582	-0.065082
C	-1.383094786	-0.4921100275	-0.092174218	-0.309014
C	-1.487712221	-1.994154241	 0.0043559298	 0.451803
C	-1.0133711389	-2.8954430442	-1.1656279916	-0.218541
N	-2.1934789029	-3.7916494128	-0.9666679951	-0.322178
C	-2.7674279661	-2.8743041633	 0.0504267559	-0.128766
C	-2.3068392954	-3.2426524647	 1.4681843278	-0.066851
O	-1.0693023432	-2.5036397122	 1.296826968	-0.339444
H	-0.2246307118	 1.7925667032	 0.6595280988	 0.281432
H	 0.6451761083	-0.4081414625	-0.8559903174	 0.114059
H	 0.5335442992	-0.3761259329	 0.9075446324	 0.114043
H	-1.9579870976	-0.0434812547	 0.7289165615	 0.091574
H	-1.829436261	-0.1456564741	-1.0317207563	 0.104781
H	-1.002328426	-2.3742954127	-2.1313498214	 0.096437
H	-0.0502342211	-3.3922305628	-1.0133622214	 0.113497
H	-2.7702050756	-3.8695079015	-1.7953862923	 0.22171
H	-3.7901397895	-2.528210941	-0.1079949958	 0.074223
H	-2.9097262385	-2.8172286277	 2.2812231398	 0.094636
H	-2.1381003398	-4.3102577469	 1.6402581414	 0.11033
72.1569	102.2327	125.921	141.4941	284.2912	289.9534	332.6977	360.6895	412.5811	429.287	661.4618	711.7124	738.0326	784.7202	850.4811	887.9506	928.799	957.9124	986.2611	998.6753	1007.4802	1044.575	1051.4484	1071.2737	1093.2574	1119.5753	1144.8987	1153.9184	1176.2439	1225.6568	1248.8909	1280.4121	1314.55	1331.5163	1337.3748	1368.3937	1393.3621	1403.4875	1419.9911	1475.033	1495.679	1505.6286	1513.3745	3010.8239	3011.2678	3016.3613	3020.3012	3060.2128	3080.3614	3082.4884	3083.4875	3096.1124	3549.0714	3816.6002
OCCC12CNC1CO2	OCC[C@]12CN[C@H]1CO2	
InChI=1S/C6H11NO2/c8-2-1-6-4-7-5(6)3-9-6/h5,7-8H,1-4H2	InChI=1S/C6H11NO2/c8-2-1-6-4-7-5(6)3-9-6/h5,7-8H,1-4H2/t5-,6-/m0/s1
