18
gdb 38256	3.35246	1.77224	1.46369	0.8495	70.23	-0.2325	0.0792	0.3117	917.8693	0.151069	-439.026505	-439.020015	-439.019071	-439.057269	26.753	
C	 0.012102251	 1.6390794661	 0.0168535234	-0.243761
N	 1.5032564252	 1.3911828698	 0.0290858963	-0.134008
C	 1.1705173152	 0.1417339512	 0.8601662768	-0.254172
C	-0.0914945982	 0.09619034	-0.0304948804	 0.405112
O	-1.2941999012	-0.6101368211	-0.016474998	-0.34076
C	-1.6223328625	-0.7942096788	-1.4136047336	-0.00867
O	-0.6206847289	-0.1747366427	-2.2104117712	-0.280818
C	 0.5292659219	-0.2404586641	-1.3741015386	 0.092009
C	 1.6423896412	 0.8263628889	-1.3687770081	-0.225242
H	-0.3153969677	 2.0660414982	 0.9669143294	 0.109887
H	-0.3584015477	 2.2267814879	-0.8258925022	 0.111405
H	 1.8958983929	-0.6740932531	 0.7965006942	 0.108027
H	 1.0067978968	 0.4375315519	 1.8969689324	 0.121961
H	-1.6702402536	-1.8770754007	-1.6033647217	 0.103834
H	-2.58224362	-0.3218376155	-1.6445985538	 0.121168
H	 0.934369736	-1.2634761416	-1.3934164455	 0.074437
H	 1.4989703118	 1.6260648324	-2.0980388137	 0.127471
H	 2.635858388	 0.394373971	-1.5049669757	 0.11212
124.1498	222.9062	337.6834	402.5519	441.165	505.5606	562.78	660.7215	684.9213	744.7007	820.1556	835.0612	860.1619	879.0485	927.5388	967.5658	974.3396	1019.904	1038.3039	1058.3326	1076.4241	1102.9905	1131.6311	1147.6784	1188.4716	1202.9609	1211.9759	1217.7722	1236.6942	1247.5495	1284.7274	1309.2117	1336.6175	1399.0423	1430.6805	1487.8936	1497.372	1530.776	1537.5394	2984.1434	2990.2096	3062.8149	3068.7434	3077.5491	3078.8776	3129.5437	3135.5156	3138.7474
C1N2CC11OCOC1C2	C1N2C[C@]31OCO[C@H]3C2	
InChI=1S/C6H9NO2/c1-5-6(9-4-8-5)2-7(1)3-6/h5H,1-4H2	InChI=1S/C6H9NO2/c1-5-6(9-4-8-5)2-7(1)3-6/h5H,1-4H2/t5-/m0/s1
