19
gdb 106437	2.64577	1.36987	1.08362	1.5999	82.76	-0.2514	0.0469	0.2983	1179.9169	0.157945	-385.798074	-385.789385	-385.788441	-385.831533	33.245	
C	-0.0501377454	 1.3445945128	 0.0146441365	-0.264084
O	 0.015734257	-0.0677016417	 0.0922719446	-0.286762
C	 0.6881159025	-0.5427257868	 1.1895260138	 0.448284
C	 2.2032923444	-0.3940050356	 1.5522148617	-0.301244
C	 1.5776850826	-1.3147609045	 2.6354637065	-0.059698
C	 0.372570976	-0.334888588	 2.7088974569	-0.305285
C	 0.8410035215	-2.0702562075	 1.4714587179	-0.234416
C	-0.3267550068	-2.8765663229	 1.7587679386	 0.308062
C	-1.2826492415	-3.5708193151	 1.9850286989	-0.43983
H	 0.9504082997	 1.7940859288	-0.05411734	 0.113365
H	-0.611208595	 1.5864526883	-0.8901090121	 0.132319
H	-0.5690742393	 1.7734283499	 0.8829744879	 0.116177
H	 2.9205478548	-0.8516309634	 0.8659082234	 0.095485
H	 2.5341947708	 0.5889693578	 1.8941608362	 0.093864
H	 2.0896288093	-1.7845100264	 3.4710873543	 0.090745
H	 0.5856563787	 0.6522707488	 3.1258375508	 0.090721
H	-0.5712950572	-0.7416360776	 3.0735829969	 0.116041
H	 1.5118879636	-2.5829645498	 0.7750413289	 0.095763
H	-2.1306803257	-4.1784393674	 2.1824777882	 0.19049
67.6175	118.0723	173.1097	177.4654	225.1184	360.0884	374.1581	445.7086	511.8678	530.6778	609.7295	625.8653	639.2637	646.0848	778.7029	817.4136	881.3156	925.3773	947.7905	955.1854	1011.7509	1039.7114	1066.1984	1084.7661	1115.9491	1129.2539	1138.0932	1160.9233	1180.7946	1205.6579	1211.8712	1220.1493	1241.8172	1304.427	1381.3569	1484.6495	1488.0573	1492.5816	1505.5484	1538.4364	2232.0297	2994.8465	3048.4519	3056.952	3060.5361	3069.238	3126.134	3127.6086	3142.8432	3154.9875	3503.7388
COC12CC(C1)C2C#C	CO[C@@]12C[C@@H](C1)[C@H]2C#C	
InChI=1S/C8H10O/c1-3-7-6-4-8(7,5-6)9-2/h1,6-7H,4-5H2,2H3	InChI=1S/C8H10O/c1-3-7-6-4-8(7,5-6)9-2/h1,6-7H,4-5H2,2H3/t6-,7-,8-/m1/s1
