18
gdb 52881	2.86435	1.00372	0.8152	3.5035	82.02	-0.2322	0.0361	0.2683	1444.0854	0.14592	-401.870223	-401.860666	-401.859722	-401.906696	33.497	
C	-0.5420118843	 1.6365676554	-0.1303024562	-0.502648
C	-0.3252173191	 0.1974225372	-0.1244203518	 0.112076
C	-0.1456624448	-0.994601003	-0.1083562966	 0.001918
C	 0.0691309279	-2.4182481135	-0.1480150534	 0.139615
C	 0.120667942	-3.1893871941	 1.1303375674	-0.277111
N	-1.0457393045	-3.3179434517	 0.2473166473	-0.353499
C	 0.861569095	-2.896890214	-1.3377874198	-0.016892
C	 2.3262692674	-2.9664153025	-1.2988780731	-0.167418
O	 1.5243969653	-4.1487015724	-1.2137289667	-0.223556
H	 0.1086996283	 2.1283892824	-0.8616277247	 0.152995
H	-1.5773097667	 1.8840617524	-0.3898766032	 0.151439
H	-0.3297378582	 2.0766996338	 0.8502814981	 0.150952
H	 0.75340805	-4.0700786077	 1.165513864	 0.142229
H	 0.0246532166	-2.6300239414	 2.0559479397	 0.116599
H	-1.8110714511	-2.7498794898	 0.6035273542	 0.236408
H	 0.3710802135	-2.7375359597	-2.2981746462	 0.103404
H	 2.8992549211	-2.8545735327	-2.2175250794	 0.118284
H	 2.8475438413	-2.6916369486	-0.3833024096	 0.115207
16.5134	63.2669	92.0513	137.3549	218.6232	244.3474	301.3601	308.3001	413.1795	443.8652	522.9173	568.5576	638.0147	810.8811	839.307	888.671	895.6843	953.0126	976.9723	1020.9245	1051.7631	1052.7906	1063.8417	1094.1169	1114.7474	1155.2004	1156.3549	1168.9384	1269.5102	1291.3161	1321.0381	1355.8728	1414.2629	1433.2553	1476.0568	1478.1743	1490.9549	1526.6964	2362.7522	3026.8844	3087.2817	3088.094	3089.7377	3111.4045	3120.6193	3177.4431	3217.9525	3500.6727
CC#CC1(CN1)C1CO1	CC#C[C@]1(CN1)[C@H]1CO1	
InChI=1S/C7H9NO/c1-2-3-7(5-8-7)6-4-9-6/h6,8H,4-5H2,1H3	InChI=1S/C7H9NO/c1-2-3-7(5-8-7)6-4-9-6/h6,8H,4-5H2,1H3/t6-,7+/m1/s1
