17
gdb 96293	2.14775	1.82318	1.10076	4.3208	64.8	-0.28	0.0246	0.3047	1087.8308	0.136174	-496.130578	-496.122389	-496.121445	-496.163861	30.141	
C	 0.2110204424	 1.4501724229	 0.2103835045	-0.398235
C	-0.1150509054	-0.003446141	-0.1089167823	 0.092841
C	 0.8552795098	-0.5855400403	-1.1307572092	-0.091227
O	 0.4720510934	-1.8560834343	-1.6359947933	-0.242264
C	-0.040589911	-2.7046044037	-0.65917991	 0.021789
O	 0.7750526033	-2.7445541508	 0.5058414827	-0.24285
C	 0.6019529001	-1.8084420779	 1.4764056739	 0.453873
O	 1.0408992852	-1.9769417808	 2.5718120686	-0.345139
O	-0.1238721502	-0.7091102358	 1.1647243461	-0.273942
H	 1.2470559144	 1.5507886679	 0.5477215349	 0.137076
H	 0.0653525836	 2.0774824377	-0.6741001749	 0.124989
H	-0.4440196264	 1.8102244521	 1.0061527709	 0.145429
H	-1.1353051461	-0.078597722	-0.5032266513	 0.110342
H	 0.8977319403	 0.0830133745	-1.994762908	 0.128282
H	 1.8629368781	-0.6341913573	-0.6941506264	 0.126258
H	-1.0631096004	-2.4288711353	-0.3691499934	 0.114005
H	-0.0254785311	-3.7141518858	-1.0716989927	 0.138773
61.8744	100.3538	217.6148	236.8066	286.2483	314.2666	354.0585	439.7908	460.0544	546.4908	594.3401	699.393	764.1595	812.0244	886.1184	932.1683	960.058	997.6225	1058.4384	1096.3901	1136.1699	1144.4643	1155.2697	1164.642	1237.8491	1283.6488	1317.8646	1341.883	1392.2091	1411.972	1421.465	1454.2904	1485.0734	1496.1822	1502.8535	1521.5695	1881.2046	3010.6323	3018.1354	3043.237	3047.5735	3098.0734	3121.0908	3130.2231	3137.8173
CC1COCOC(=O)O1	C[C@H]1COCOC(=O)O1	
InChI=1S/C5H8O4/c1-4-2-7-3-8-5(6)9-4/h4H,2-3H2,1H3	InChI=1S/C5H8O4/c1-4-2-7-3-8-5(6)9-4/h4H,2-3H2,1H3/t4-/m0/s1
