17
gdb 74285	2.96504	1.19254	1.13435	6.0281	74.73	-0.2338	0.0259	0.2596	1154.2242	0.137616	-414.225871	-414.217161	-414.216217	-414.259307	32.748	
C	 0.0208257101	 1.5109202409	 0.0643144157	-0.410822
C	-0.0089448485	-0.0276386475	 0.0044466959	 0.139705
C	 0.796958531	-0.5856100684	-1.2298346991	-0.227162
N	 2.0053223597	-1.1109329955	-0.5848960622	-0.346706
C	 1.7135060749	-1.182703997	 0.7769035467	 0.417583
N	 2.5754688947	-1.8883905313	 1.5817788654	-0.582103
N	 0.6531900937	-0.5902284412	 1.1928781518	-0.33207
C	-1.4114138251	-0.483307688	-0.0546611971	 0.271541
N	-2.509353685	-0.8361962597	-0.1293783255	-0.351146
H	 1.0613975258	 1.8474037609	 0.0603830705	 0.124498
H	-0.5003140762	 1.9491880961	-0.7920007252	 0.125755
H	-0.4538902247	 1.8571703963	 0.98452446	 0.144956
H	 0.2409939635	-1.3714778866	-1.7509086121	 0.129775
H	 1.0346664157	 0.2061974838	-1.9454452944	 0.122015
H	 2.4002491863	-1.9482684231	-0.9919095968	 0.246796
H	 3.551613014	-1.8225683469	 1.3320910667	 0.257775
H	 2.4037591703	-1.7392994628	 2.5657107497	 0.26961
53.2231	152.1458	184.4139	218.748	251.78	325.5302	382.389	405.1215	431.6588	499.9913	544.9587	575.6603	607.8583	647.6685	707.8552	740.2915	821.904	915.2473	933.744	968.0837	1005.7813	1081.5907	1124.9951	1149.6873	1170.0311	1198.6526	1253.3761	1321.6609	1363.4681	1403.2656	1482.0341	1489.0128	1494.882	1530.8	1625.0847	1723.8767	2354.9644	3043.4124	3045.9906	3091.1589	3120.8178	3139.2716	3569.486	3579.2965	3675.616
CC1(CNC(N)=N1)C#N	C[C@]1(CN[C](N)[N]1)C#N	
InChI=1S/C5H8N4/c1-5(2-6)3-8-4(7)9-5/h3H2,1H3,(H3,7,8,9)	InChI=1S/C5H8N4/c1-5(2-6)3-8-4(7)9-5/h3H2,1H3,(H3,7,8,9)/t5-/m1/s1
