14
gdb 19099	3.79992	2.94837	2.84696	2.783	58.31	-0.2256	0.0337	0.2593	591.8237	0.109514	-382.440003	-382.435338	-382.434393	-382.468484	20.256	
O	-0.0038649868	 1.4173870175	 0.156209641	-0.268326
C	 1.4205119027	 1.4155353858	-0.0478013681	 0.070553
C	 2.1234543908	 0.7264676071	 1.2091071132	 0.070552
O	 1.1106304972	 0.3248780105	 2.1489977909	-0.268326
C	 0.7139648471	-0.69709361	 1.2169549014	 0.070555
C	 0.0110149016	-0.0080187657	-0.0399462218	 0.070554
C	 1.3879066521	 0.0342687697	-0.7648562032	-0.117613
C	 2.075633889	-0.6398730809	 0.4648269745	-0.117614
H	 1.8118859023	 2.3566736429	-0.435545075	 0.082242
H	 2.9896162326	 1.2021899774	 1.6703139945	 0.082242
H	 0.2494255205	-1.5653461338	 1.6855706919	 0.082242
H	-0.9283118451	-0.410854418	-0.4202732017	 0.082242
H	 1.5629799454	-0.1449182417	-1.8225657437	 0.080349
H	 2.8480369708	-1.404591731	 0.4751668561	 0.080349
409.8628	477.3275	634.4401	674.347	713.7377	765.2437	784.4021	815.6584	838.6812	842.6207	856.5692	869.0068	941.5611	983.0784	989.1427	991.9379	1047.579	1075.5139	1087.5335	1142.8353	1159.8439	1171.6629	1176.5124	1184.4396	1245.2254	1255.5103	1262.5585	1297.1918	1320.2873	1330.5369	3101.6505	3103.6467	3110.7914	3113.73	3141.7831	3154.4585
O1C2C3OC4C1C2C34	O1[C@H]2[C@H]3O[C@H]4[C@@H]1[C@@H]2[C@@H]34	
InChI=1S/C6H6O2/c7-3-1-2-5(3)8-6(2)4(1)7/h1-6H	InChI=1S/C6H6O2/c7-3-1-2-5(3)8-6(2)4(1)7/h1-6H/t1-,2+,3-,4+,5+,6-
