17
gdb 54504	3.19419	1.46685	1.15378	3.5681	73.81	-0.2241	-0.0089	0.2151	1066.0139	0.135824	-418.027081	-418.018852	-418.017908	-418.060091	31.025	
C	 0.681794243	 1.2245262566	 0.0643834882	-0.479223
C	-0.3288903483	 0.1147588184	-0.1196483462	 0.309249
O	-1.2054845599	-0.1168602434	 0.6888494805	-0.329291
C	-0.2003695878	-0.7162659625	-1.3550450578	 0.228282
C	-1.4659535184	-1.3568949306	-1.9144712537	-0.315174
C	-0.4394444486	-2.2646386616	-1.3393599197	-0.04951
N	 0.5562003168	-2.7335110451	-2.2644086298	-0.287555
C	 1.2664923445	-1.6310830045	-2.70432816	 0.028016
N	 0.8943412205	-0.4855104087	-2.2582953115	-0.305918
H	 1.6959305242	 0.8126295255	 0.0790616107	 0.143305
H	 0.6479974038	 1.9086768507	-0.7894935673	 0.152474
H	 0.4732809537	 1.756964361	 0.9927906104	 0.130844
H	-2.3462344525	-1.1894757893	-1.305296638	 0.14489
H	-1.599564506	-1.3338756274	-2.9907534167	 0.122102
H	-0.6192920486	-2.834461687	-0.4362542534	 0.122245
H	 1.018483967	-3.6171708044	-2.1178617782	 0.254031
H	 2.0742829667	-1.7662789277	-3.4160139177	 0.131233
61.9039	129.9142	169.3569	200.6353	313.4012	380.494	393.0834	449.1366	493.8436	565.4728	604.4463	650.8735	704.4393	773.0312	857.5759	900.2341	932.4022	942.6877	966.0021	988.0083	1049.1702	1060.1394	1071.874	1083.9687	1131.3563	1162.475	1231.6046	1309.1647	1336.797	1377.4184	1390.538	1427.3422	1453.1448	1460.4655	1465.4977	1638.828	1784.241	3047.5509	3109.2279	3134.2055	3157.766	3194.0756	3198.7572	3239.4724	3628.0264
CC(=O)C12CC1NC=N2	CC(=O)[C@]12C[C@H]1NC=N2	
InChI=1S/C6H8N2O/c1-4(9)6-2-5(6)7-3-8-6/h3,5H,2H2,1H3,(H,7,8)	InChI=1S/C6H8N2O/c1-4(9)6-2-5(6)7-3-8-6/h3,5H,2H2,1H3,(H,7,8)/t5-,6-/m1/s1
