21
gdb 118436	2.13757	1.29312	0.91091	4.8869	76.23	-0.2356	0.0513	0.2869	1345.4644	0.182155	-457.58101	-457.570539	-457.569595	-457.61711	37.913	
C	-0.0195748774	 1.6273557971	-0.0574573116	-0.378604
C	-0.0197322118	 0.0943142754	-0.023491538	-0.178006
N	 0.6350259519	-0.5255414956	-1.1690926859	-0.074599
C	 2.0641675489	-0.8373624751	-1.0726436163	-0.222847
C	 2.3547856323	-2.2948094638	-0.7079034169	-0.01853
O	 1.8142891403	-3.2200447881	-1.6205061399	-0.434779
C	 0.0266568067	-0.7537766505	-2.3756448478	 0.470839
N	-1.25889164	-0.2773137121	-2.5383836308	-0.564893
O	 0.6054461198	-1.3150617187	-3.3058871837	-0.438982
H	 1.0036019902	 2.0139969042	-0.0896141529	 0.129715
H	-0.5471414153	 2.0000965253	-0.939783255	 0.134877
H	-0.5074619595	 2.0311664925	 0.8355424594	 0.119381
H	 0.4948994485	-0.2600739154	 0.8752328151	 0.123206
H	-1.0431983823	-0.2889803646	 0.0675261326	 0.109284
H	 2.5258032484	-0.6056383101	-2.0364507161	 0.138668
H	 2.5091309478	-0.1757455084	-0.3217010229	 0.100752
H	 3.450849153	-2.4033312983	-0.6323296484	 0.08074
H	 1.9467345023	-2.5143102522	 0.2913484046	 0.08227
H	 1.5419798002	-2.7323726738	-2.4152440467	 0.302752
H	-1.8428298603	-0.0885466389	-1.7418447762	 0.253193
H	-1.7271065337	-0.6828737687	-3.3330155728	 0.265563
47.5533	70.4484	100.6293	136.52	166.634	225.3123	255.4816	337.5925	358.4824	405.9092	432.566	473.8393	508.2297	535.0919	569.9714	601.5685	729.6313	774.8379	794.3668	867.8333	937.9633	951.0952	1077.9295	1079.0749	1097.8963	1101.0737	1125.947	1192.1886	1233.679	1277.1168	1323.9097	1330.5568	1377.819	1385.4283	1408.7641	1410.4423	1456.0119	1472.6791	1486.6672	1492.3136	1501.1345	1518.7626	1527.1654	1622.0456	1732.8328	2953.8321	2989.6142	3030.4483	3040.0294	3048.3401	3073.3109	3103.0973	3111.66	3122.2386	3603.4723	3646.9988	3720.9782
CCN(CCO)C(N)=O	CCN(CCO)C(=O)N	
InChI=1S/C5H12N2O2/c1-2-7(3-4-8)5(6)9/h8H,2-4H2,1H3,(H2,6,9)	InChI=1S/C5H12N2O2/c1-2-7(3-4-8)5(6)9/h8H,2-4H2,1H3,(H2,6,9)
