23
gdb 104200	2.42203	1.24871	1.20074	2.2696	81.32	-0.2397	0.0594	0.2991	1241.3345	0.202268	-425.421187	-425.410486	-425.409542	-425.456301	40.139	
C	 0.0082029029	 1.628770435	 0.0609464053	-0.419843
C	-0.1242644538	 0.1082788155	-0.0955381009	-0.222944
C	 0.6937723864	-0.4597195609	-1.2590630675	 0.298977
O	 0.3229552889	 0.1280392778	-2.4897817111	-0.481041
C	 2.2121852058	-0.5749349246	-0.9701313675	-0.127507
O	 2.1124474834	-2.0003749832	-0.8151245851	-0.324392
C	 0.7592843103	-2.0243022725	-1.3646352182	 0.371681
C	-0.1609037678	-2.866721387	-0.4926124956	-0.437528
C	 0.7798208977	-2.5431007926	-2.8008232662	-0.412116
H	 1.0537747858	 1.9353474091	 0.1779408589	 0.122842
H	-0.410967958	 2.1680916927	-0.7964309502	 0.113717
H	-0.5359836071	 1.974705724	 0.9441755053	 0.12521
H	 0.1994958083	-0.37391024	 0.8324569714	 0.111236
H	-1.1784824609	-0.1540643461	-0.2418084312	 0.104855
H	 0.3782610197	 1.0844661154	-2.3997182374	 0.280018
H	 2.8353370091	-0.2869308666	-1.8275461068	 0.093335
H	 2.5940391472	-0.0903909816	-0.0632691145	 0.091506
H	-0.131439044	-2.5553834066	 0.5531140714	 0.116582
H	-1.19484354	-2.8122447873	-0.8487698395	 0.118305
H	 0.1553773459	-3.9137464715	-0.538463058	 0.122626
H	 1.1121319199	-3.5859081321	-2.8002126404	 0.112267
H	-0.2169671425	-2.4929418084	-3.2488613528	 0.117837
H	 1.4567836028	-1.9589698585	-3.4257219194	 0.124376
62.9055	109.6365	159.4529	185.0866	217.3129	222.5129	247.3818	282.0065	320.3784	332.9599	351.6109	374.5324	426.96	488.6704	534.5313	637.3732	701.9772	796.6978	850.3461	883.8408	930.5889	944.9164	980.9213	992.5336	1002.3679	1021.1719	1041.2624	1094.7917	1150.7233	1175.671	1187.3389	1203.4634	1245.4473	1275.4876	1308.883	1313.2622	1357.4201	1390.2263	1397.4223	1410.7929	1413.6872	1469.3851	1476.4489	1482.7875	1495.584	1499.5217	1506.473	1514.7373	1516.1032	3001.8879	3027.8717	3037.0516	3041.2385	3047.1871	3051.5825	3074.922	3097.525	3104.4661	3108.0345	3115.7872	3131.3393	3140.1431	3820.8539
CCC1(O)COC1(C)C	CC[C@@]1(O)COC1(C)C	
InChI=1S/C7H14O2/c1-4-7(8)5-9-6(7,2)3/h8H,4-5H2,1-3H3	InChI=1S/C7H14O2/c1-4-7(8)5-9-6(7,2)3/h8H,4-5H2,1-3H3/t7-/m1/s1
