19
gdb 102834	1.95219	1.33568	0.94553	4.2386	74.02	-0.2455	0.0086	0.2541	1296.5251	0.158516	-456.299557	-456.289836	-456.288891	-456.336102	34.083	
O	-0.0516239182	 1.560866528	 0.1442987535	-0.410818
C	 0.0441630601	 0.1654091998	-0.0269160392	-0.062237
C	-1.3287368092	-0.5204560851	 0.0038077949	 0.027803
O	-1.9692103465	-0.1273551233	 1.2291491816	-0.211257
C	-2.0647569665	-1.028514158	 2.23134492	 0.126129
N	-2.50140397	-0.6673582151	 3.3566781799	-0.438689
C	-2.2187903858	-0.1439250614	-1.1658510416	 0.028962
C	-3.6973151731	-0.1853080115	-1.0552514608	-0.255683
N	-2.9880562737	 1.1005775545	-1.1784735469	-0.30374
H	-0.4933075282	 1.7075962164	 0.9888236667	 0.296125
H	 0.5159015606	-0.0069666238	-1.0000698746	 0.118008
H	 0.6861077615	-0.2958752437	 0.7414279307	 0.089261
H	-1.1775538988	-1.6102370051	-0.0015623023	 0.087293
H	-1.7424133462	-2.0374320408	 1.9404754876	 0.095419
H	-2.5313851692	-1.4610290454	 3.9929089565	 0.235323
H	-1.7607585665	-0.3886551269	-2.1232665803	 0.095751
H	-4.2956809946	-0.4648985296	-1.9176005999	 0.11824
H	-4.1266942146	-0.4455824497	-0.092483148	 0.123051
H	-2.9268046112	 1.5405155607	-0.2639958078	 0.241059
24.2234	53.9784	104.713	113.1019	168.5846	226.4687	298.373	330.6194	376.7763	426.7637	533.2344	582.1491	740.0068	791.16	819.6533	852.1872	894.8654	931.7421	949.9696	988.0869	1022.5057	1042.5095	1080.6499	1099.1729	1113.0465	1139.2048	1148.522	1193.7305	1227.9703	1257.8896	1284.7602	1301.7615	1322.4646	1370.1869	1396.0553	1419.3772	1420.52	1431.0991	1496.539	1508.0149	1743.5745	2970.2179	2999.3769	3028.9689	3078.1425	3114.3083	3118.9402	3203.2006	3517.9223	3523.587	3799.5504
OCC(OC=N)C1CN1	OC[C@@H](O[CH][NH])[C@H]1CN1	
InChI=1S/C5H10N2O2/c6-3-9-5(2-8)4-1-7-4/h3-8H,1-2H2	InChI=1S/C5H10N2O2/c6-3-9-5(2-8)4-1-7-4/h3-8H,1-2H2/t4-,5-/m1/s1
