20
gdb 31699	5.18025	0.82219	0.75701	2.335	84.41	-0.1826	0.0497	0.2323	1571.5668	0.17082	-403.179275	-403.169654	-403.16871	-403.214409	35.105	
C	 0.1490714408	 1.5209599217	 0.2020892513	-0.363595
C	-0.0891782482	 0.024907637	-0.0747855166	-0.298014
C	 0.5837357548	-0.4754877906	-1.3144393034	 0.350536
C	 0.0634811043	-0.8064544595	-2.5476864682	-0.379933
C	 1.150959234	-1.1919755764	-3.3798557244	 0.371669
O	 0.981930691	-1.5838989146	-4.6704384841	-0.26214
C	 2.164820005	-1.9426214647	-5.3505036239	-0.239455
C	 2.3125438157	-1.0900539399	-2.6432875357	-0.234228
N	 1.9419759827	-0.6491736291	-1.3850023038	-0.315691
H	 1.2149595424	 1.7384908409	 0.3277640342	 0.108311
H	-0.2156760946	 2.1307279886	-0.6296831448	 0.126717
H	-0.3668885489	 1.8377088508	 1.1142478344	 0.110928
H	 0.2409110202	-0.5600503468	 0.794972412	 0.099485
H	-1.1634191874	-0.1597961254	-0.173704188	 0.115834
H	-0.9762884327	-0.7809819551	-2.8337659395	 0.092973
H	 2.8691577206	-1.0998134896	-5.4013349014	 0.112979
H	 2.6672330038	-2.7895022494	-4.8613265483	 0.112969
H	 1.8748429537	-2.2313253413	-6.3625428168	 0.127319
H	 3.3407137822	-1.2905582869	-2.8878202773	 0.110088
H	 2.5804054104	-0.4945223596	-0.6252647955	 0.253249
36.9452	73.9753	144.4638	183.1902	225.0059	237.9043	307.8568	329.703	334.5405	432.0449	492.7289	615.5636	622.7065	668.7103	691.966	711.2643	780.1927	791.9903	945.1994	984.3915	1005.8148	1059.3037	1077.1187	1085.6513	1138.0083	1182.5615	1186.8504	1217.5857	1257.7186	1299.9568	1321.8532	1354.8537	1405.9156	1441.1334	1469.1918	1474.4912	1483.5127	1487.3177	1494.8767	1504.8666	1511.2009	1560.1617	1637.9349	2987.4149	3010.563	3033.704	3038.2131	3075.1161	3102.9102	3114.2713	3126.9815	3254.9897	3282.794	3686.2437
CCC1=CC(OC)=CN1	CCc1cc(OC)c[nH]1	
InChI=1S/C7H11NO/c1-3-6-4-7(9-2)5-8-6/h4-5,8H,3H2,1-2H3	InChI=1S/C7H11NO/c1-3-6-4-7(9-2)5-8-6/h4-5,8H,3H2,1-2H3
