15
gdb 10442	2.80777	1.74248	1.2668	1.8017	72.49	-0.2498	0.0314	0.2812	975.5617	0.116359	-325.423536	-325.415248	-325.414303	-325.456366	30.759	
C	-0.1734715315	-1.1147079541	 0.4898150689	-0.443578
C	-0.0726936835	 0.0249308839	 0.1237921489	 0.323921
C	 0.0535105329	 1.4148556029	-0.3015303736	-0.444729
C	 1.4672342951	 1.980290949	-0.1176184253	 0.090411
C	 1.5910311625	 3.3982898807	 0.3413333769	-0.271955
N	 1.9252584234	 2.2988526721	 1.2518010113	-0.322732
C	 2.4646257295	 1.4225296032	-0.9979367432	 0.356028
C	 3.2675483482	 0.9648940874	-1.7658621332	-0.445637
H	-0.258338661	-2.1248724838	 0.8058182694	 0.20108
H	-0.2320444607	 1.5083300778	-1.356320796	 0.146035
H	-0.649026662	 2.037498535	 0.2672585027	 0.126319
H	 2.4384894882	 3.9902691634	 0.0106135807	 0.133713
H	 0.6703644256	 3.957169178	 0.4921067313	 0.115181
H	 1.1646584598	 2.1272172804	 1.9062801025	 0.238617
H	 3.9880004435	 0.553498224	-2.4286430312	 0.197325
55.9929	118.4132	178.5309	220.908	329.9451	337.1261	362.8318	459.3444	552.3014	568.0545	614.5528	628.5812	648.2589	656.4273	717.0114	849.7696	893.2024	906.523	961.9865	985.6921	995.7027	1081.912	1141.1421	1209.0571	1242.4036	1292.6511	1338.4536	1379.599	1460.7478	1508.0713	2242.1201	2243.7205	3022.3984	3060.444	3108.4131	3201.7023	3491.974	3503.5473	3506.3346
C#CCC1(CN1)C#C	C#CC[C@]1(CN1)C#C	
InChI=1S/C7H7N/c1-3-5-7(4-2)6-8-7/h1-2,8H,5-6H2	InChI=1S/C7H7N/c1-3-5-7(4-2)6-8-7/h1-2,8H,5-6H2/t7-/m0/s1
