13
gdb 46439	4.1544	1.20934	1.08955	2.3525	65.59	-0.2883	-0.0339	0.2545	1062.0952	0.089854	-452.740649	-452.733471	-452.732527	-452.772528	26.517	
N	-0.0734383883	 1.2386411174	 0.3357339649	-0.534406
C	-0.0166832249	 0.0238831992	 0.0114173949	 0.463968
O	 1.1210803258	-0.6894362178	-0.2603945821	-0.250775
C	 0.8265798802	-1.951493249	-0.8739791354	-0.155212
C	-0.6752274581	-2.1360276485	-0.711437587	 0.285056
O	-1.0777282301	-2.0661894158	 0.6540270956	-0.261823
C	-1.1973822535	-0.8771709863	-0.142771163	-0.14761
C	-1.4079863657	-3.0092805535	-1.5900259506	 0.227062
N	-1.9594612915	-3.7208878207	-2.314150711	-0.315521
H	 0.8562881502	 1.6617141198	 0.3505246512	 0.23829
H	 1.1078143066	-1.9231883878	-1.9320619274	 0.144379
H	 1.3952990976	-2.7315631403	-0.3614943389	 0.152558
H	-2.1939752582	-0.4843373467	-0.3005607812	 0.154035
110.9191	153.1217	172.8014	286.5163	385.0462	412.7461	489.9613	553.4644	578.9369	653.8841	700.9426	774.9351	863.5945	899.7203	910.8457	949.7695	1012.5674	1041.9408	1077.5745	1102.9069	1200.7696	1229.1588	1249.1064	1294.5061	1386.6806	1429.1743	1501.6658	1791.2495	2366.939	3053.0633	3112.0144	3214.7859	3479.8242
N=C1OCC2(OC12)C#N	[NH][C]1OC[C@]2(O[C@@H]12)C#N	
InChI=1S/C5H4N2O2/c6-1-5-2-8-4(7)3(5)9-5/h3,7H,2H2	InChI=1S/C5H4N2O2/c6-1-5-2-8-4(7)3(5)9-5/h3,7H,2H2/t3-,5+/m0/s1
