22
gdb 22234	2.37745	0.90334	0.79776	1.4572	81.6	-0.2434	0.0104	0.2538	1562.9417	0.191269	-441.443856	-441.43263	-441.431685	-441.48036	40.313	
C	 0.3582421541	 0.8884672984	-1.2437963116	-0.39243
C	-0.0004297459	 0.0576541359	 0.0031503617	-0.046814
C	 0.40721745	 0.7718084484	 1.3071456076	-0.391029
C	-1.463554274	-0.367135995	 0.0318084523	 0.337684
C	-1.7790896021	-1.8438677083	 0.0272182565	-0.258497
C	-1.5142148082	-2.5059692594	-1.3269986842	-0.072102
O	-1.7388762204	-3.8976680861	-1.1673337417	-0.417727
N	-2.4908459365	 0.3944643775	 0.0757053153	-0.180292
O	-2.1700940727	 1.7654418448	 0.0825964944	-0.39574
H	 1.4332258777	 1.0975264206	-1.2532708013	 0.108407
H	 0.1144858665	 0.3481272707	-2.1642543043	 0.109605
H	-0.1816072494	 1.8359587855	-1.2543837968	 0.143937
H	 0.5825112968	-0.8701015965	-0.0492344852	 0.076289
H	-0.1361154982	 1.7104355646	 1.4255780244	 0.142344
H	 0.202116353	 0.1454838975	 2.1811877935	 0.112556
H	 1.4806145782	 0.9879688509	 1.2934258502	 0.108552
H	-1.1631139641	-2.3544457984	 0.7785146795	 0.112988
H	-2.8276825967	-1.9929871626	 0.2939317244	 0.123667
H	-2.1889064611	-2.0702992713	-2.0798480511	 0.097679
H	-0.4815051421	-2.3061254288	-1.6552706806	 0.08878
H	-1.6162956127	-4.3220646971	-2.0214235535	 0.286836
H	-3.0415002922	 2.1714912987	 0.1314492604	 0.305306
67.082	76.0735	94.5493	153.3243	217.3676	224.4892	241.7797	247.7982	255.4515	299.1125	341.0689	369.9423	380.0081	427.4141	445.321	643.1694	724.6167	736.0914	815.3268	901.0305	937.0124	968.7578	971.4605	1007.4444	1070.5252	1077.896	1123.9363	1130.8005	1170.5196	1217.5398	1235.3995	1242.6088	1307.99	1330.5285	1350.6609	1361.3118	1393.6275	1416.7387	1422.7626	1456.4776	1481.799	1485.1464	1499.8338	1500.7622	1519.5075	1526.9709	1725.4542	2968.3477	3000.3014	3021.5658	3034.8925	3037.564	3041.1528	3097.4372	3100.5611	3113.0722	3143.6015	3149.3008	3824.0352	3830.8817
CC(C)C(CCO)=NO	CC(C)C(=NO)CCO	
InChI=1S/C6H13NO2/c1-5(2)6(7-9)3-4-8/h5,8-9H,3-4H2,1-2H3	InChI=1S/C6H13NO2/c1-5(2)6(7-9)3-4-8/h5,8-9H,3-4H2,1-2H3
