17
gdb 75558	2.64729	1.50759	1.04149	1.2258	77.36	-0.2261	0.0193	0.2454	1135.2195	0.136454	-417.975851	-417.967498	-417.966554	-418.008684	32.242	
N	 0.0164017373	 1.3548700185	 0.1417500764	-0.541633
C	-0.0628967038	-0.0145188298	-0.0049132662	 0.330474
N	-1.18607649	-0.6111445711	 0.0048218769	-0.306055
C	-1.2065441766	-2.067217033	-0.0197399139	-0.147736
C	 0.1254880117	-2.6944529986	 0.3677431293	-0.088548
O	 1.1780409505	-2.0905318414	-0.3769547637	-0.25964
C	 1.3080442904	-0.7215622537	-0.0516234501	-0.100881
C	 2.2117419052	-0.091558751	-1.011965034	 0.287572
C	 2.9476931818	 0.4650249443	-1.7815641321	-0.42877
H	 0.7735146576	 1.807121257	-0.3504948916	 0.256086
H	-0.8773029958	 1.8178215797	 0.0493451867	 0.252835
H	-1.9951455657	-2.417671718	 0.6583978786	 0.103128
H	-1.4933512121	-2.3982963879	-1.0273186374	 0.112571
H	 0.3106310802	-2.5721777535	 1.4477821199	 0.093558
H	 0.158733314	-3.7612801742	 0.1315133316	 0.112011
H	 1.749174295	-0.615015496	 0.9573353862	 0.119783
H	 3.6054564005	 0.9372222986	-2.4693712967	 0.205247
70.6083	149.1937	204.6529	252.2011	331.1527	368.2145	414.6121	439.8398	467.6991	492.0419	554.8681	605.0825	621.5689	661.0926	681.5816	687.5592	850.6197	909.2927	917.0902	973.9615	1044.8989	1054.0505	1117.1634	1138.3444	1206.2019	1259.4897	1281.254	1292.796	1342.3905	1365.1795	1374.5895	1405.8216	1484.8653	1493.9873	1622.9684	1750.7861	2238.6267	2926.8742	2972.2775	3011.7748	3043.2214	3095.2611	3500.5034	3553.9169	3666.0684
NC1=NCCOC1C#C	NC1=NCCO[C@H]1C#C	
InChI=1S/C6H8N2O/c1-2-5-6(7)8-3-4-9-5/h1,5H,3-4H2,(H2,7,8)	InChI=1S/C6H8N2O/c1-2-5-6(7)8-3-4-9-5/h1,5H,3-4H2,(H2,7,8)/t5-/m0/s1
