21
gdb 36898	4.9264	0.84613	0.81828	1.4787	82.69	-0.2321	0.0871	0.3193	1488.3461	0.182713	-387.030907	-387.022508	-387.021564	-387.064664	32.479	
C	-0.2701466378	 1.6190201418	 0.020641386	-0.243619
C	-0.208432731	 0.1228496764	-0.2106093516	 0.043837
C	-0.1339148277	-0.8293122402	 0.9576617311	-0.257792
C	-1.3873481292	-0.7544312578	 0.1188963819	-0.28015
C	 1.1104942191	 2.2337378247	 0.1764991616	 0.151647
O	 1.9637142156	 2.0654708636	-1.0018847511	-0.309518
C	 2.2753325422	 3.4599077677	-0.9870120401	 0.114431
C	 1.0587105366	 4.2839520659	-1.2561923331	-0.298455
C	 1.3158137692	 3.7498931679	 0.1415486569	-0.15754
H	-0.7974334987	 2.1063058582	-0.8077287576	 0.098939
H	-0.8440424206	 1.8321164041	 0.9330249023	 0.092549
H	 0.3674869427	-0.1563858559	-1.0879037911	 0.101403
H	 0.4941070073	-1.709047024	 0.8717515777	 0.111842
H	-0.1719926366	-0.4100104319	 1.9584074567	 0.105293
H	-2.2617769041	-0.2846169798	 0.5581039297	 0.106908
H	-1.6162043587	-1.5831594269	-0.5420630528	 0.110426
H	 1.6242862335	 1.7895058016	 1.0392868847	 0.081572
H	 3.3012993282	 3.7537953491	-1.175702778	 0.101917
H	 1.229428462	 5.3515960623	-1.3567115734	 0.113165
H	 0.2666709896	 3.8850316507	-1.882741186	 0.116673
H	 1.4165638884	 4.3914726225	 1.0062760562	 0.096472
63.8699	76.7342	125.393	194.0887	308.2884	335.547	412.7853	482.0318	526.3729	715.6009	766.2657	775.0538	808.2245	811.8033	833.7767	854.3599	918.1471	945.2056	959.6417	974.1421	997.5487	1008.1346	1041.6004	1049.6685	1055.9833	1074.4226	1079.2795	1086.1569	1111.0932	1143.7259	1168.145	1198.1296	1201.7053	1225.5486	1253.2479	1269.2769	1282.8133	1317.3034	1366.0533	1400.2272	1416.6265	1465.6137	1471.6841	1478.4157	1506.6933	3016.1893	3017.4184	3064.8876	3120.0994	3125.739	3130.7994	3155.0246	3179.0625	3201.2699	3203.8967	3211.6338	3219.3602
C(C1CC1)C1OC2CC12	C(C1CC1)[C@H]1O[C@H]2C[C@@H]12	
InChI=1S/C8H12O/c1-2-5(1)3-7-6-4-8(6)9-7/h5-8H,1-4H2	InChI=1S/C8H12O/c1-2-5(1)3-7-6-4-8(6)9-7/h5-8H,1-4H2/t6-,7+,8-/m0/s1
