19
gdb 96225	2.39452	1.58243	1.06235	3.1379	79.83	-0.2348	-0.0531	0.1817	1158.9706	0.159582	-423.050987	-423.0425	-423.041556	-423.08443	32.118	
C	 0.3374378804	 1.5333356166	 0.0069393731	-0.397253
C	-0.0376992789	 0.0564338348	-0.1039825912	 0.023389
O	 0.7974735202	-0.5145687663	-1.0883814859	-0.250746
C	 0.5354584575	-1.8704610771	-1.3898267529	-0.09546
C	 1.4996014697	-2.7870816921	-0.6466293738	-0.255804
C	 1.4804830834	-2.6612420883	 0.8450495351	-0.035916
C	 0.8704238783	-1.7588177421	 1.6256818376	-0.132606
C	 0.0133035259	-0.59509243	 1.2928353929	 0.321112
O	-0.6710426406	-0.1006223442	 2.1705241535	-0.33479
H	 1.3883996986	 1.6352716776	 0.2936776905	 0.1255
H	 0.1934877011	 2.0253317077	-0.9578133048	 0.12177
H	-0.2859618862	 2.013289796	 0.7623414086	 0.143556
H	-1.0923832938	-0.0209232858	-0.4192108929	 0.095967
H	-0.5057402035	-2.1303986387	-1.146893549	 0.099644
H	 0.6640087768	-1.9980535667	-2.4707488713	 0.108996
H	 1.2972124787	-3.832687845	-0.918951489	 0.113191
H	 2.5235492456	-2.5882790493	-0.9954734689	 0.132281
H	 2.0442731834	-3.4381666936	 1.3604589509	 0.107623
H	 0.9423698633	-1.8823946937	 2.7035895374	 0.109546
44.7862	133.643	225.4219	253.6946	271.9501	288.313	368.605	382.8656	460.6581	491.787	564.5421	620.6855	710.5313	761.7527	827.5542	844.7564	880.6171	944.2477	1010.6107	1022.337	1034.8478	1079.7911	1104.6836	1134.2248	1157.5379	1209.9098	1253.1839	1284.5984	1305.3286	1327.0813	1351.2764	1392.8151	1397.6266	1409.205	1428.2516	1450.0882	1487.9931	1497.1071	1503.6011	1696.5229	1745.7237	2959.1105	2994.4432	3006.6688	3036.0729	3052.3753	3061.913	3124.6375	3131.5546	3154.7519	3166.0196
CC1OCCC=CC1=O	C[C@H]1OCCC=CC1=O	
InChI=1S/C7H10O2/c1-6-7(8)4-2-3-5-9-6/h2,4,6H,3,5H2,1H3	InChI=1S/C7H10O2/c1-6-7(8)4-2-3-5-9-6/h2,4,6H,3,5H2,1H3/t6-/m1/s1
