21
gdb 5880	4.10756	1.01081	0.99776	3.1018	79.95	-0.2407	0.0331	0.2737	1331.5201	0.184683	-366.272608	-366.262339	-366.261395	-366.307468	36.931	
C	 0.0469723851	 1.3908214805	-0.0455642638	-0.312665
N	 0.0616463425	-0.0553251182	-0.0912588278	-0.212516
C	-1.0505217329	-0.6438628239	-0.0249573433	 0.12485
O	-1.1122908302	-1.9861399359	-0.0615690057	-0.244773
C	-2.4048410139	-2.6488535481	 0.0153074214	 0.346665
C	-3.27908779	-2.255387854	-1.1826536997	-0.408394
C	-2.0378246155	-4.1325476241	-0.0571560965	-0.398811
C	-3.0891142152	-2.332231866	 1.3516162071	-0.408452
H	 0.647388318	 1.7407526767	 0.802475547	 0.124261
H	 0.5143678831	 1.7949069899	-0.9513194722	 0.124258
H	-0.9617018865	 1.8291150343	 0.0444722359	 0.089811
H	-2.0142310115	-0.1230618401	 0.0641987735	 0.073149
H	-2.7457870968	-2.4435208073	-2.1186936052	 0.130966
H	-4.1994477936	-2.8472210273	-1.1848625213	 0.120427
H	-3.5653668042	-1.2002814753	-1.1553081498	 0.116273
H	-1.3813103161	-4.4022376505	 0.7741537203	 0.127137
H	-2.9374219469	-4.7527594122	-0.0089440792	 0.112953
H	-1.5129333644	-4.3485138145	-0.9913191813	 0.127166
H	-3.3725171598	-1.2789497818	 1.4305352904	 0.116289
H	-4.0009645759	-2.928096638	 1.455581563	 0.120437
H	-2.4228348452	-2.5731493743	 2.1846881671	 0.130969
66.2185	85.4954	146.0535	190.6486	201.3914	245.2661	251.9993	298.0672	322.1824	341.5368	346.0937	393.5181	454.4571	516.4918	552.5327	773.7896	914.7515	915.0206	927.8481	958.4948	983.0131	1041.5213	1044.5517	1070.0428	1140.6977	1149.3569	1210.5784	1243.8603	1260.8396	1288.0762	1394.026	1397.0964	1413.3972	1427.7302	1450.2442	1469.9163	1479.853	1484.0383	1484.3867	1496.3678	1499.0575	1505.7251	1516.8396	1768.5045	2957.2526	3011.9687	3040.6365	3042.9133	3049.8859	3051.6603	3071.0181	3110.4394	3115.0323	3119.7731	3120.5195	3126.6909	3127.0626
CN=COC(C)(C)C	CN=COC(C)(C)C	
InChI=1S/C6H13NO/c1-6(2,3)8-5-7-4/h5H,1-4H3	InChI=1S/C6H13NO/c1-6(2,3)8-5-7-4/h5H,1-4H3
