18
gdb 98993	4.16628	0.81088	0.68659	3.3352	73.85	-0.2445	0.0139	0.2584	1603.7597	0.147058	-472.444645	-472.434152	-472.433207	-472.48177	35.915	
C	 0.2536508141	 1.1625704626	 0.5550115494	-0.329702
N	-0.3242538828	 0.157608055	-0.3141423995	-0.362071
C	-1.1335784913	-0.8348832736	 0.1727290925	 0.521872
O	-1.4522515746	-0.9258513607	 1.3465165304	-0.403511
N	-1.5591554516	-1.7224655727	-0.8081299683	-0.400317
C	-2.4060732655	-2.8237230527	-0.6753817739	 0.329423
N	-2.7095823033	-3.4448965025	-1.7441310917	-0.518713
C	-2.8953650658	-3.2083182335	 0.7195117972	-0.149923
O	-3.6523337833	-4.4033659239	 0.6769651974	-0.408764
H	 0.0103308652	 2.1722739334	 0.207202015	 0.126907
H	-0.1709663376	 1.0154567811	 1.5482751203	 0.17537
H	 1.3439163991	 1.0657090016	 0.6184667085	 0.125734
H	-0.0483588257	 0.1463242224	-1.2813472627	 0.243604
H	-1.3087396321	-1.5560077982	-1.7730067763	 0.24775
H	-3.3461404139	-4.2050222674	-1.5022840402	 0.225283
H	-2.0500673897	-3.2690557809	 1.4114719945	 0.134367
H	-3.5472079694	-2.4221593889	 1.1080470157	 0.152897
H	-3.0380320018	-5.1429982011	 0.6330405116	 0.289794
27.1761	62.9263	78.6782	133.8552	148.9407	172.6122	281.6127	317.6446	325.3209	341.2645	388.2204	423.4963	518.3046	628.1379	658.1753	750.7182	763.3306	842.7442	907.2121	996.3526	1002.084	1073.0387	1099.4192	1158.5826	1170.0192	1199.9836	1212.0826	1229.971	1348.9881	1392.5351	1440.9775	1443.1588	1455.28	1488.4987	1499.2877	1506.2069	1572.1981	1716.689	1782.9599	3025.9171	3066.26	3078.2596	3114.8632	3158.1892	3482.064	3593.638	3651.1712	3822.0129
CNC(=O)NC(=N)CO	CNC(=O)NC(=N)CO	
InChI=1S/C4H9N3O2/c1-6-4(9)7-3(5)2-8/h8H,2H2,1H3,(H3,5,6,7,9)	InChI=1S/C4H9N3O2/c1-6-4(9)7-3(5)2-8/h8H,2H2,1H3,(H3,5,6,7,9)
