17
gdb 70389	2.50433	1.54129	1.3357	2.8163	72.67	-0.2536	0.0028	0.2564	1028.3363	0.134587	-417.972071	-417.963349	-417.962405	-418.005045	32.766	
C	 0.0393544518	 1.5366558339	 0.0953834232	-0.50665
C	-0.0196535282	 0.0439423144	-0.0183495297	 0.325614
C	-0.9120620027	-0.8251847445	 0.7762957083	-0.285327
N	 0.5391636134	-0.917821185	 1.027681817	-0.158925
C	 1.0610850795	-1.7820339362	-0.0788099026	-0.219131
C	 0.5585552952	-0.7835416355	-1.1777246495	 0.182344
O	-0.4229286004	-1.2067330969	-2.0970734631	-0.461867
C	 1.6684948761	-0.1219496634	-1.8771371706	 0.23512
N	 2.5411112867	 0.3693829925	-2.4547187293	-0.340214
H	 1.0349487517	 1.919262943	-0.1481889533	 0.146176
H	-0.6812738544	 2.0014531729	-0.5866321387	 0.137603
H	-0.2070376035	 1.8446965484	 1.1149505527	 0.135698
H	-1.4525204469	-0.3444743717	 1.5856965805	 0.128594
H	-1.4272105714	-1.6615816529	 0.3117897203	 0.130748
H	 2.1469156529	-1.8674445084	-0.0239617984	 0.136233
H	 0.6043677265	-2.7751697034	-0.1323450562	 0.118232
H	 0.0068459839	-1.6843305874	-2.8164185606	 0.295752
116.1646	134.1071	167.1687	208.6281	254.1304	289.7498	325.8888	374.2519	462.2571	475.7289	534.332	553.9771	657.2001	676.1857	750.3862	845.0437	885.8858	913.5765	971.4843	990.035	1040.0238	1092.9474	1100.4212	1117.6397	1137.2438	1178.1363	1222.1787	1255.2504	1291.4436	1369.249	1372.4518	1421.0471	1479.6147	1483.3682	1493.2438	1510.0399	2350.2242	3038.128	3055.1673	3105.0847	3116.5496	3123.107	3133.6935	3208.1966	3796.3742
CC12CN1CC2(O)C#N	C[C@]12CN1C[C@]2(O)C#N	
InChI=1S/C6H8N2O/c1-5-3-8(5)4-6(5,9)2-7/h9H,3-4H2,1H3	InChI=1S/C6H8N2O/c1-5-3-8(5)4-6(5,9)2-7/h9H,3-4H2,1H3/t5-,6-,8?/m1/s1
