15
gdb 123362	3.6804	1.18857	0.95837	1.6684	73.75	-0.1998	0.0185	0.2183	1177.9553	0.11322	-412.95409	-412.945802	-412.944857	-412.987302	30.49	
C	 0.0778058544	-0.6846111302	-0.9402261759	-0.469274
C	 0.1000685587	 0.3078166608	-0.25886384	 0.292855
C	 0.1501376266	 1.5534871046	 0.5212755806	-0.302533
N	 1.3723472638	 2.3353283893	 0.3865494866	-0.394488
C	 1.7287958404	 2.6731216964	-0.7945566146	 0.50977
N	 2.8276062625	 3.4768570485	-1.0869928398	-0.354545
C	 2.9354631751	 3.5869342698	-2.4500916502	 0.058131
N	 1.9973310754	 2.9538177241	-3.0736275879	-0.209449
N	 1.2088983452	 2.4340640834	-2.0566690796	-0.306224
H	 0.0602201711	-1.5836754105	-1.5055608623	 0.200023
H	-0.7366700708	 2.1549826777	 0.2562912834	 0.124544
H	 0.0330616606	 1.3009029472	 1.5810544791	 0.137346
H	 3.4373183515	 3.8484209168	-0.380443545	 0.279758
H	 3.7164841271	 4.1480222669	-2.9380663233	 0.153163
H	 0.6077694683	 1.6531899452	-2.266440451	 0.280923
72.3968	101.0452	169.6515	208.576	284.8278	331.4372	423.0966	436.0002	485.4249	622.4781	632.0563	652.2236	655.8584	701.1073	727.6069	848.765	912.993	943.9169	980.2235	1003.9764	1057.2969	1086.5648	1121.4385	1251.2435	1265.8066	1335.8633	1359.5036	1394.9077	1427.6285	1473.6154	1632.3567	1756.1571	2217.411	2953.5978	3051.6231	3274.1261	3500.8772	3647.4689	3696.4996
C#CCN=C1NC=NN1	C#CCN=c1[nH]cn[nH]1	
InChI=1S/C5H6N4/c1-2-3-6-5-7-4-8-9-5/h1,4H,3H2,(H2,6,7,8,9)	InChI=1S/C5H6N4/c1-2-3-6-5-7-4-8-9-5/h1,4H,3H2,(H2,6,7,8,9)
