19
gdb 106634	2.33285	1.65068	1.21501	1.661	70.05	-0.2536	0.0641	0.3177	1072.5824	0.160035	-460.135478	-460.127322	-460.126378	-460.16802	32.182	
O	 0.042524722	 1.3313158294	-0.3300914475	-0.419156
C	 0.0328969369	-0.0311494669	 0.064613015	-0.168725
C	-1.3721281534	-0.5659749356	 0.1323055456	 0.342266
C	-2.3928719228	 0.0388059821	 1.1127537323	-0.259369
C	-3.6739944003	-0.6569614787	 0.5498061259	-0.228993
C	-2.9906860512	-1.4464541431	-0.5758594055	 0.0252
O	-2.0874779002	-0.4442914355	-1.1641696503	-0.37683
C	-1.7451510337	-2.0788755764	 0.0951674188	 0.134458
O	-0.950177705	-2.867534759	-0.7449580855	-0.45283
H	-0.4725778544	 1.3846037573	-1.1436624675	 0.295858
H	 0.6320346545	-0.6565948105	-0.6136511584	 0.092758
H	 0.4975027562	-0.0789450214	 1.0553445366	 0.115102
H	-2.176788261	-0.2246301936	 2.1519279737	 0.103351
H	-2.4158471517	 1.125876476	 1.0261973249	 0.12195
H	-4.176441338	-1.3035287024	 1.2743874746	 0.105241
H	-4.4020473662	 0.0536803054	 0.1540999585	 0.11408
H	-3.5926277604	-1.9820677482	-1.3104438657	 0.083626
H	-1.8637510164	-2.6143923714	 1.0404116678	 0.085575
H	-0.8964166651	-2.3931841777	-1.5852145733	 0.286438
93.9044	145.5203	230.8853	260.8692	283.7797	344.3598	402.8255	452.3168	473.3633	528.0499	608.3363	654.7617	712.5722	816.5643	822.0364	872.1535	906.275	923.7702	933.8391	963.4295	979.8947	1053.2425	1054.7285	1095.7003	1142.7717	1156.5742	1179.0976	1201.5609	1236.1486	1245.6456	1252.9942	1287.2081	1301.8792	1315.9309	1337.865	1379.6562	1436.0407	1444.5855	1480.62	1499.6847	1501.7433	2997.4108	3063.7896	3071.4953	3075.4568	3089.2076	3113.2499	3123.563	3131.8058	3769.6102	3798.2961
OCC12CCC(O1)C2O	OC[C@@]12CC[C@@H](O1)[C@H]2O	
InChI=1S/C6H10O3/c7-3-6-2-1-4(9-6)5(6)8/h4-5,7-8H,1-3H2	InChI=1S/C6H10O3/c7-3-6-2-1-4(9-6)5(6)8/h4-5,7-8H,1-3H2/t4-,5-,6-/m1/s1
