18
gdb 108775	2.7373	1.2421	0.87834	6.0423	79.86	-0.2138	-0.0211	0.1927	1298.1581	0.148113	-439.111005	-439.102142	-439.101198	-439.144718	32.386	
C	-0.1019939722	 1.4338543444	 0.1296759153	-0.32454
N	-0.0058085318	-0.0023617393	-0.0308448735	-0.338244
C	 0.6694035588	-0.5976691798	-1.0458952986	 0.357961
C	 1.2936633168	 0.0591355295	-2.0614019946	-0.323517
C	 1.8690497205	-0.6722730313	-3.1730683869	 0.360614
O	 2.3557793182	-0.1496943687	-4.1625986443	-0.361873
C	 1.8014602536	-2.2002836477	-3.0742839369	-0.192929
O	 1.7132586598	-2.6779982154	-1.7405403029	-0.234583
C	 0.6388092641	-2.1139523018	-1.0398364156	-0.165269
H	 0.8795470539	 1.8982734063	 0.2929833796	 0.139412
H	-0.5492977295	 1.8885747335	-0.7607708159	 0.148512
H	-0.7401309917	 1.6542464528	 0.9871102041	 0.132879
H	-0.2647956018	-0.5736605694	 0.7556870509	 0.249614
H	 1.3469269917	 1.1404556104	-2.1059700922	 0.088327
H	 0.9419170956	-2.5517351655	-3.6726392546	 0.105455
H	 2.7097870814	-2.6230594137	-3.5072441498	 0.135088
H	 0.705235886	-2.487964906	-0.010807103	 0.112614
H	-0.3308212132	-2.4517360481	-1.4513323314	 0.110479
89.3471	132.76	148.5224	181.8642	213.2932	275.4073	326.1596	390.4763	456.322	471.4659	520.458	548.7126	610.5152	657.6477	850.0831	879.2223	915.1358	974.1659	999.6152	1041.5942	1081.0115	1153.1591	1160.6547	1185.0805	1234.8106	1277.4281	1306.8765	1315.0662	1343.639	1356.3248	1413.2332	1461.1701	1467.2619	1480.0334	1483.5025	1514.6168	1552.4338	1660.3712	1757.0929	2933.9701	2954.3395	3014.1825	3048.9746	3074.5742	3119.9253	3134.4406	3199.6091	3647.7228
CNC1=CC(=O)COC1	CNC1=CC(=O)COC1	
InChI=1S/C6H9NO2/c1-7-5-2-6(8)4-9-3-5/h2,7H,3-4H2,1H3	InChI=1S/C6H9NO2/c1-7-5-2-6(8)4-9-3-5/h2,7H,3-4H2,1H3
