23
gdb 94002	2.00833	1.44671	1.14572	2.8885	84.88	-0.2426	-0.021	0.2216	1228.5883	0.205497	-388.320508	-388.310767	-388.309823	-388.355636	36.455	
C	 0.4908282976	 1.7154538001	 0.1775944625	-0.402909
C	 0.2337034591	 0.213983706	-0.0012368661	 0.026663
C	 1.0063916739	-0.3612427455	-1.2269953967	-0.218592
C	 1.7583399744	-1.6159193589	-0.7333794784	-0.243794
C	 1.9923850192	-1.3696492577	 0.7699382542	-0.0869
C	 3.2057899929	-0.5003039948	 1.0206724014	 0.166389
O	 3.9234774871	-0.5951424244	 1.9849341098	-0.264042
C	 0.6554708849	-0.6886949045	 1.2033159522	 0.01486
C	 0.663261829	-0.0430904202	 2.5892848929	-0.419746
H	 1.551187418	 1.9318814088	 0.3528501977	 0.115354
H	 0.1945686411	 2.2571862762	-0.7269651344	 0.114041
H	-0.0768343798	 2.1333349629	 1.014289976	 0.116638
H	-0.8440051676	 0.0876767666	-0.1533822697	 0.072081
H	 0.3460235222	-0.5869178767	-2.0688985367	 0.100064
H	 1.721186426	 0.3860604437	-1.5897965646	 0.101774
H	 1.1363549357	-2.5100080931	-0.8483435712	 0.105494
H	 2.6836162585	-1.7986610532	-1.2894550128	 0.101084
H	 2.1487320078	-2.2890195253	 1.3420877105	 0.087673
H	 3.4167590939	 0.2656138921	 0.2366760076	 0.069046
H	-0.0650716404	-1.5161420742	 1.2360472312	 0.081375
H	 1.3714989993	 0.7868096329	 2.6620671006	 0.127974
H	-0.3298656834	 0.340250718	 2.8457498452	 0.112334
H	 0.9451793607	-0.775498229	 3.3520849288	 0.123138
36.1222	76.4059	126.838	221.7471	248.491	259.79	286.9509	308.1091	365.4536	387.5658	438.2956	513.5661	614.9637	657.2948	738.8746	817.3703	850.0023	911.2961	920.1557	950.8201	979.1822	1001.4075	1035.2183	1042.6661	1052.7842	1077.7619	1110.1041	1164.061	1179.1397	1211.7756	1219.932	1244.485	1295.0005	1309.2121	1332.471	1337.9531	1353.039	1372.0863	1376.1356	1411.9586	1421.2026	1438.4209	1488.5653	1492.0494	1494.0805	1503.5232	1505.9632	1510.6682	1822.7556	2843.6736	3006.3562	3027.3013	3034.0027	3038.6101	3039.6441	3042.1435	3071.0135	3078.2199	3090.505	3094.047	3102.0163	3106.6964	3114.7901
CC1CCC(C=O)C1C	C[C@H]1CC[C@@H](C=O)[C@H]1C	
InChI=1S/C8H14O/c1-6-3-4-8(5-9)7(6)2/h5-8H,3-4H2,1-2H3	InChI=1S/C8H14O/c1-6-3-4-8(5-9)7(6)2/h5-8H,3-4H2,1-2H3/t6-,7-,8-/m0/s1
