18
gdb 47308	2.69995	1.35656	1.0312	3.063	72.62	-0.2384	-0.0316	0.2068	1159.0907	0.149466	-439.145154	-439.136888	-439.135944	-439.178526	31.044	
O	 0.018048675	-0.0920975689	-0.1306994259	-0.290768
C	-0.0208842543	 1.1118847157	-0.0441329926	 0.394655
C	-1.3259465342	 1.8877248777	 0.0299110244	-0.296038
C	-1.4858659445	 2.8199451642	 1.2484753897	-0.21257
C	-0.3842379169	 3.8863162095	 1.4193644753	-0.305627
C	 0.8889356936	 3.3336807155	 2.0529572217	 0.377048
O	 1.2511980601	 3.6483856025	 3.1703342157	-0.357929
N	 1.5955345301	 2.4280067902	 1.3050498133	-0.291105
C	 1.2753714787	 1.9418215511	-0.0287507129	-0.266235
H	-1.384024811	 2.4974047243	-0.8841992007	 0.118454
H	-2.142393489	 1.1622050661	-0.0037155814	 0.127349
H	-2.4492909996	 3.3299868466	 1.1465391436	 0.115994
H	-1.5509403349	 2.221480558	 2.1642864039	 0.128209
H	-0.1632706286	 4.3599017262	 0.4538074692	 0.109721
H	-0.7282267688	 4.6684682891	 2.0977602592	 0.133706
H	 2.3776215427	 2.011387511	 1.787221758	 0.257158
H	 2.0854356693	 1.2888063468	-0.3552470406	 0.137997
H	 1.1998787323	 2.7760812846	-0.7387395399	 0.11998
53.4632	107.1933	190.4613	237.2163	302.4627	321.8759	434.6379	470.2214	490.246	515.917	557.5071	659.1147	715.0811	762.3093	834.7463	844.3867	892.7507	941.6724	961.7748	1047.8971	1068.4515	1112.4627	1144.6851	1198.0026	1222.2658	1268.8794	1277.8238	1337.0152	1343.4298	1361.8582	1376.6274	1393.2089	1455.0109	1468.121	1477.942	1491.4092	1497.5333	1792.1788	1819.3569	3006.0075	3018.1551	3029.0625	3042.2577	3082.1611	3105.3383	3122.582	3130.3898	3624.86
O=C1CCCC(=O)NC1	O=C1CCCC(=O)NC1	
InChI=1S/C6H9NO2/c8-5-2-1-3-6(9)7-4-5/h1-4H2,(H,7,9)	InChI=1S/C6H9NO2/c8-5-2-1-3-6(9)7-4-5/h1-4H2,(H,7,9)
