19
gdb 105482	1.98949	1.49954	1.17672	2.2507	70.94	-0.2493	-0.0198	0.2295	1149.5635	0.156774	-460.149022	-460.139204	-460.13826	-460.184698	34.656	
C	-1.5352276949	-0.2732137465	 0.7134399252	-0.496893
C	-0.1338557557	-0.1636755015	 0.1438766187	 0.34618
O	 0.7467179182	 0.4228590389	 0.7296671714	-0.301801
C	 0.1217775004	-0.8415183992	-1.2028520421	 0.128602
C	-0.934909117	-0.4693989227	-2.2444978756	-0.142658
O	-1.1297810239	 0.9303376498	-2.3549419884	-0.415996
C	 1.5846071704	-0.7852242708	-1.697972949	-0.125965
O	 1.6918168516	-2.2259758719	-1.6964639	-0.266405
C	 0.3849993107	-2.3743913027	-1.1232454513	-0.119818
H	-2.1937621444	 0.4015240161	 0.1553362132	 0.16833
H	-1.9392839282	-1.2860779911	 0.6122507256	 0.131463
H	-1.5254949418	 0.02371405	 1.7625763089	 0.144408
H	-0.6614647603	-0.9222625983	-3.2097495931	 0.106711
H	-1.908489105	-0.8817016728	-1.959636528	 0.117645
H	-0.3051520361	 1.3292216349	-2.6525180799	 0.292129
H	 1.7378667017	-0.3669545096	-2.7017868866	 0.088955
H	 2.2732029024	-0.3157744222	-0.9902087834	 0.132656
H	 0.4195054755	-2.7917040352	-0.108264792	 0.108347
H	-0.2763498636	-2.9955427453	-1.7420101535	 0.104112
40.9992	64.8674	103.4957	166.6309	183.2108	211.9006	274.9072	325.8415	363.8542	396.5043	448.0157	538.2694	585.864	658.4698	833.4724	861.3541	938.2461	943.736	971.2846	988.614	1028.6039	1044.9881	1067.4353	1092.4396	1123.3536	1158.7467	1166.8473	1193.2109	1252.5796	1300.4183	1314.4079	1372.335	1377.8796	1384.4025	1416.117	1465.6559	1478.4796	1504.8609	1512.1168	1534.2117	1807.3035	2990.9003	2998.1377	3012.1796	3038.9258	3043.0525	3074.8406	3093.9176	3104.3219	3153.7623	3809.8605
CC(=O)C1(CO)COC1	CC(=O)C1(CO)COC1	
InChI=1S/C6H10O3/c1-5(8)6(2-7)3-9-4-6/h7H,2-4H2,1H3	InChI=1S/C6H10O3/c1-5(8)6(2-7)3-9-4-6/h7H,2-4H2,1H3
