15
gdb 129663	3.4542	1.2861	0.94376	5.4547	72.26	-0.2204	-0.0368	0.1836	1164.5093	0.114355	-450.147292	-450.138944	-450.137999	-450.180193	30.541	
N	-0.1576261975	 1.4683080797	-0.0185604145	-0.621428
C	-0.0323616391	 0.051696909	-0.0193745119	 0.018677
C	-1.1133861058	-0.7967103415	 0.0198048026	 0.425975
N	-2.4635600194	-0.4848543505	-0.0108050012	-0.606347
N	-0.6093001998	-2.0837004929	 0.010090787	-0.092447
C	-1.3506656394	-3.2651134893	-0.0543465188	 0.181436
O	-0.8900430051	-4.3710485729	-0.0409990338	-0.268012
N	 0.7701334136	-2.0913086614	-0.0050736436	-0.251486
C	 1.0988189325	-0.8189096622	-0.0368734999	-0.017545
H	 0.4075957228	 1.8949619067	 0.7084326421	 0.2446
H	 0.1385948793	 1.8748216288	-0.9007693371	 0.246526
H	-2.5667072644	 0.5235772579	 0.048157215	 0.265719
H	-3.0204592108	-0.9352037557	 0.7050102054	 0.257637
H	-2.4302784483	-3.0442493153	-0.1314794607	 0.098268
H	 2.1447170315	-0.5406789703	-0.0576318705	 0.118427
95.8249	155.873	193.7693	223.9401	264.5667	306.5905	322.5673	338.5277	412.4744	533.1956	654.5995	679.9604	701.5273	753.0857	802.245	839.2692	854.279	908.0406	991.3528	1029.2668	1154.409	1189.1735	1222.8173	1246.9706	1311.028	1394.0099	1434.2314	1469.1233	1524.4422	1626.9102	1650.6164	1691.8126	1844.1156	2980.2216	3222.8427	3494.7632	3512.5213	3560.974	3604.0487
NC1=C(N)N(C=O)N=C1	Nc1c(N)n(C=O)nc1	
InChI=1S/C4H6N4O/c5-3-1-7-8(2-9)4(3)6/h1-2H,5-6H2	InChI=1S/C4H6N4O/c5-3-1-7-8(2-9)4(3)6/h1-2H,5-6H2
