15
gdb 124280	2.73043	1.58683	1.00981	3.4043	70.81	-0.224	-0.0474	0.1766	1104.636	0.113496	-453.994147	-453.986109	-453.985165	-454.027329	29.448	
C	 0.0077994515	 1.445142533	 0.0109170572	-0.478787
C	-0.0040848125	-0.0628926601	-0.0302648096	 0.345493
O	 1.0334474698	-0.7216510215	-0.0836164456	-0.372366
C	-1.2803750259	-0.7663549004	-0.0062366755	 0.11239
N	-2.4884558778	-0.1793163341	 0.0521887943	-0.293091
N	-3.3410405224	-1.1958703726	 0.052483763	-0.171206
C	-2.7537987146	-2.4316843663	-0.0030333773	-0.145426
C	-1.3970176345	-2.1848585165	-0.0428113856	 0.247367
O	-0.3889846019	-3.0652407465	-0.1028422441	-0.430675
H	 1.0377414839	 1.8025045775	-0.003928773	 0.138421
H	-0.5448482469	 1.8481870665	-0.843606115	 0.152056
H	-0.5049291112	 1.8014351407	 0.9097475244	 0.152058
H	-4.3279657099	-1.0006472781	 0.0922085567	 0.283601
H	-3.3250482502	-3.3440962613	-0.0093804538	 0.146587
H	 0.4224520427	-2.5172730004	-0.1150444262	 0.313578
56.7802	114.0737	181.3053	193.265	318.4578	342.1721	460.1683	520.2411	542.2359	585.4033	648.323	664.1057	714.0392	726.5233	728.5588	773.6142	943.8794	959.0269	1047.3559	1072.1953	1107.3126	1214.6396	1259.4614	1327.1053	1374.3081	1391.5252	1441.7597	1459.8885	1467.0669	1486.7954	1540.8932	1631.7428	1728.4913	3049.4789	3112.6577	3159.2577	3282.6133	3529.6999	3662.3576
CC(=O)C1=NNC=C1O	CC(=O)c1n[nH]cc1O	
InChI=1S/C5H6N2O2/c1-3(8)5-4(9)2-6-7-5/h2,9H,1H3,(H,6,7)	InChI=1S/C5H6N2O2/c1-3(8)5-4(9)2-6-7-5/h2,9H,1H3,(H,6,7)
