14
gdb 129240	3.3993	1.13037	0.89898	3.7698	65.89	-0.2296	-0.0416	0.188	1212.0501	0.100232	-466.155207	-466.146831	-466.145887	-466.18992	28.84	
N	-0.1094387211	 1.3518839404	 0.1623293809	-0.598839
C	 0.0264695118	 0.0886682159	 0.058409284	 0.491248
N	 1.0970984861	-0.7907331961	 0.0267960634	-0.319259
N	 0.6953150461	-2.0907558624	-0.1005653433	-0.065525
N	-0.5680382059	-2.1008265329	-0.1561910253	-0.104421
N	-1.0207522115	-0.8179570931	-0.0644778586	-0.051777
C	-2.4227935129	-0.4937343409	-0.085810943	-0.246587
C	-3.0583327603	-0.6836943808	-1.4615204605	 0.159762
O	-4.2418313977	-0.7951005153	-1.6218766108	-0.222338
H	 0.7798717401	 1.8332380849	 0.2520345088	 0.220537
H	 2.0768468735	-0.5792206373	 0.0956274742	 0.287697
H	-2.9741548541	-1.0807917091	 0.6531546532	 0.161061
H	-2.491226812	 0.5668244424	 0.1842244079	 0.191062
H	-2.334721242	-0.6945532957	-2.3064529811	 0.097379
31.2239	75.6854	95.1256	192.3499	257.8585	322.6123	386.4913	417.7699	515.1549	672.1726	689.1343	697.1622	721.1016	760.0694	824.7886	965.6702	1024.4375	1034.2204	1069.5701	1075.9351	1174.4303	1244.9354	1310.0202	1351.5939	1371.0103	1410.4252	1432.5202	1441.0199	1510.4071	1762.4638	1848.038	2895.9649	3055.322	3116.2147	3545.8722	3698.0092
N=C1NN=NN1CC=O	[NH][C@@H]1NN=NN1CC=O	
InChI=1S/C3H5N5O/c4-3-5-6-7-8(3)1-2-9/h2H,1H2,(H2,4,5,7)	InChI=1S/C3H6N5O/c4-3-5-6-7-8(3)1-2-9/h2-4H,1H2,(H,5,7)/t3-/m1/s1
