19
gdb 75022	3.22101	1.21722	0.92106	3.97	89.73	-0.231	-0.0652	0.1658	1269.4859	0.160183	-385.935892	-385.927489	-385.926545	-385.96904	32.042	
C	 0.0514562991	 1.5093575259	 0.0059015873	-0.47888
C	-0.0526872642	 0.0108863779	-0.0099545724	 0.292999
C	-0.1367051644	-0.6678261036	-1.1706373267	-0.156545
C	-0.1594896808	-2.1059562888	-1.3677017652	-0.04935
C	-0.4212521151	-3.1216757471	-0.5162126773	-0.182725
C	-0.8715251937	-3.0643310996	 0.8856142748	 0.357631
O	-1.0664471071	-4.0965251902	 1.5031302168	-0.330238
C	-1.1346127224	-1.7149780008	 1.5425659794	-0.30326
C	-0.0209913537	-0.6757393176	 1.3346796423	-0.315409
H	 0.9674726469	 1.8293501232	 0.5200960001	 0.13425
H	 0.0564718602	 1.9331457844	-1.0012123152	 0.125791
H	-0.7829756209	 1.9533201379	 0.5644022674	 0.1334
H	-0.1184443483	-0.0878617995	-2.0905910576	 0.085833
H	 0.0831045835	-2.4035716594	-2.3870778923	 0.104644
H	-0.3445408084	-4.1402664486	-0.8858346304	 0.103928
H	-2.0806956081	-1.3210457785	 1.1464079718	 0.120325
H	-1.2854218869	-1.9145691171	 2.6062230575	 0.121899
H	 0.9581196714	-1.1612275081	 1.4674201271	 0.126465
H	-0.0900149772	 0.0790817596	 2.1241539327	 0.109244
60.6301	163.9217	176.0897	221.4812	300.1494	336.3447	348.9745	391.7645	488.3499	528.8233	554.3452	678.092	697.3149	758.3616	807.0964	852.7769	912.1157	930.1131	958.048	993.0531	1034.4717	1052.331	1062.4374	1075.235	1166.0871	1176.9377	1245.4066	1251.7217	1291.9708	1338.248	1373.3537	1402.1659	1410.2011	1439.2619	1462.8344	1472.0778	1478.1008	1487.8431	1640.9298	1696.9372	1750.6337	2996.9432	3013.6171	3024.0417	3058.6054	3071.4335	3104.1321	3117.7334	3129.7479	3151.6922	3177.223
CC1=CC=CC(=O)CC1	CC1=CC=CC(=O)CC1	
InChI=1S/C8H10O/c1-7-3-2-4-8(9)6-5-7/h2-4H,5-6H2,1H3	InChI=1S/C8H10O/c1-7-3-2-4-8(9)6-5-7/h2-4H,5-6H2,1H3
