13
gdb 21058	3.97008	1.9001	1.29561	1.9071	57.61	-0.203	0.0348	0.2378	875.2991	0.09516	-431.925708	-431.917964	-431.917019	-431.958707	26.856	
C	 0.1496693799	 1.3910803105	-0.0525581866	-0.323184
N	 0.1112663757	-0.0466133448	 0.0008303538	-0.058557
N	 0.1724457678	-0.8146955038	-1.1668567225	-0.322989
C	 0.114158443	-2.0096755804	-0.7207082007	 0.487348
O	 0.1370806854	-3.1223146476	-1.4449015149	-0.396041
O	 0.0197375867	-2.1359895433	 0.6294058385	-0.251261
C	 0.0173787895	-0.8155597484	 1.1238420312	 0.462261
N	-0.0558002297	-0.4537185428	 2.3330952343	-0.606679
H	 1.0824891245	 1.7383998205	-0.5084702635	 0.139781
H	-0.6949342672	 1.7813094809	-0.6296097371	 0.139805
H	 0.0883450606	 1.7517355007	 0.9748724505	 0.174531
H	 0.078614214	-3.8776138169	-0.8474622712	 0.324468
H	-0.1171165303	-1.2451395747	 2.9646380183	 0.230517
33.5365	109.3115	195.7451	235.466	282.9695	334.3922	344.2183	565.6881	644.2648	656.2694	679.925	689.2289	726.1946	844.1243	968.2574	1017.3148	1031.0863	1160.7445	1166.7879	1231.2669	1284.6055	1427.6782	1435.7223	1449.6304	1481.0309	1518.2534	1755.4145	1825.6432	3035.7511	3093.4201	3157.5666	3567.4445	3821.4318
CN1N=C(O)OC1=N	CN1N=C(O)O[C@@H]1[NH]	
InChI=1S/C3H5N3O2/c1-6-2(4)8-3(7)5-6/h4H,1H3,(H,5,7)	InChI=1S/C3H6N3O2/c1-6-2(4)8-3(7)5-6/h2,4H,1H3,(H,5,7)/t2-/m1/s1
