20
gdb 91959	2.4006	1.69956	1.38333	1.0703	78.24	-0.242	0.0642	0.3062	1030.5393	0.172948	-403.116807	-403.108982	-403.108037	-403.14864	31.95	
O	 0.1379679685	 1.466999526	 0.0372416779	-0.42408
C	 0.0340507704	 0.0443755482	 0.0791216379	 0.003267
C	 0.6071448706	-0.430871657	 1.4300713488	-0.222749
C	-0.5890593144	-0.549610313	 2.3692383033	-0.041345
C	-1.545164768	 0.6135842758	 2.4405027184	-0.301395
C	-1.8498266615	-0.5524068817	 1.5268770127	-0.089536
C	-1.4206259859	-0.4428557444	 0.0906941875	 0.340068
C	-2.320776496	-0.1762778724	-1.0592970315	-0.308316
N	-1.8439732047	-1.5460342459	-0.7902953307	-0.362331
H	-0.4444013327	 1.7813861416	-0.6625084187	 0.278634
H	 0.5798280828	-0.3888568742	-0.77402047	 0.059726
H	 1.0719987065	-1.4148178669	 1.3038956363	 0.101399
H	 1.3781335278	 0.2636390333	 1.7761739224	 0.11297
H	-0.4958046007	-1.197586725	 3.2333479305	 0.081846
H	-2.1538569252	 0.695547768	 3.3347703288	 0.10514
H	-1.2449607996	 1.557445597	 2.0018320971	 0.128224
H	-2.689777464	-1.2014914951	 1.7429927443	 0.089387
H	-3.3825777684	-0.0174559938	-0.8920451484	 0.123144
H	-1.9240311062	 0.3486198283	-1.9276971477	 0.099518
H	-1.0973961792	-1.7828830188	-1.4408112289	 0.226429
123.4333	210.8968	228.3766	302.7514	323.546	331.4083	400.6389	422.1089	496.6773	574.9979	689.6966	768.5664	802.7276	827.7734	871.9972	879.4791	910.7244	932.3864	946.1922	974.1312	992.7138	1010.8074	1024.9977	1074.3316	1082.7256	1095.8547	1107.3133	1117.9267	1145.1075	1198.9442	1202.9133	1230.1155	1263.6463	1291.5633	1311.7721	1328.9579	1348.7594	1372.7755	1402.528	1432.5156	1475.9616	1486.2987	1509.5033	2968.9339	3047.4581	3088.3224	3094.7586	3136.5672	3170.3401	3177.3178	3186.4235	3229.9148	3480.4704	3808.2376
OC1CC2CC2C11CN1	O[C@H]1C[C@H]2C[C@H]2[C@]21CN2	
InChI=1S/C7H11NO/c9-6-2-4-1-5(4)7(6)3-8-7/h4-6,8-9H,1-3H2	InChI=1S/C7H11NO/c9-6-2-4-1-5(4)7(6)3-8-7/h4-6,8-9H,1-3H2/t4-,5-,6+,7+/m1/s1
