21
gdb 31127	1.94837	1.65642	0.96404	1.8457	87.39	-0.1692	0.0556	0.2247	1280.194	0.182657	-383.314914	-383.30462	-383.303676	-383.350426	37.655	
C	 0.1800040895	 1.5551741363	 0.2433531191	-0.365267
C	-0.0433002816	 0.0529710385	-0.011219504	-0.31572
C	 0.649506823	-0.4556033628	-1.2424483184	 0.166439
C	 0.0798988577	-0.7886299572	-2.4595271746	 0.222523
C	-1.3429957632	-0.7806701931	-2.9154832229	-0.50706
N	 1.0922269328	-1.1674178631	-3.3021930245	-0.306697
C	 2.3096937441	-1.0972376083	-2.6512222242	-0.174316
C	 2.063413931	-0.653726598	-1.3735056579	 0.162268
N	 3.0108568622	-0.3546931059	-0.3682697028	-0.606229
H	 1.2477102899	 1.7775466721	 0.327293887	 0.134632
H	-0.2184695735	 2.1501406758	-0.5845286482	 0.111771
H	-0.313870264	 1.8787297001	 1.166153808	 0.098444
H	 0.2996169736	-0.5086632966	 0.8706841642	 0.085678
H	-1.1185950745	-0.1486097548	-0.0788422222	 0.093637
H	-1.515589777	-0.0579411484	-3.7235959369	 0.124612
H	-1.6633190016	-1.7635107778	-3.2845768728	 0.12105
H	-2.0071624388	-0.5097924894	-2.0920615458	 0.135597
H	 0.9651565709	-1.4694519916	-4.2512046777	 0.250239
H	 3.2300023267	-1.3587088278	-3.1477852006	 0.098729
H	 3.9039590809	-0.7979340083	-0.5464352406	 0.233484
H	 2.6913896618	-0.6488038995	 0.5478839856	 0.236185
43.8604	77.2933	131.0334	176.6951	196.7655	224.4936	280.4864	286.2074	301.1578	368.3571	427.1478	481.0298	565.4345	621.2383	643.0574	679.3251	722.8632	738.3561	792.4129	817.1214	964.2421	969.3493	998.6554	1056.5945	1084.182	1098.8276	1115.0407	1154.6446	1225.5078	1283.3978	1294.2291	1335.8745	1359.5113	1405.0536	1415.2045	1453.7472	1479.9682	1481.2529	1487.8981	1496.8764	1508.2695	1515.0496	1573.5084	1641.3435	1662.0795	2991.4385	3011.7746	3032.0876	3051.5223	3052.7854	3100.2725	3115.9746	3123.4205	3259.6484	3512.3109	3601.1807	3690.0348
CCC1=C(C)NC=C1N	CCc1c(C)[nH]cc1N	
InChI=1S/C7H12N2/c1-3-6-5(2)9-4-7(6)8/h4,9H,3,8H2,1-2H3	InChI=1S/C7H12N2/c1-3-6-5(2)9-4-7(6)8/h4,9H,3,8H2,1-2H3
