18
gdb 96884	3.4797	1.06814	0.95824	2.8976	75.16	-0.2501	0.0315	0.2817	1286.1441	0.146611	-439.054516	-439.04568	-439.044736	-439.089096	31.381	
C	 0.0842087254	 1.4867118314	 0.4074101241	-0.338517
N	-0.2092501202	 0.07011715	 0.5692080475	-0.324623
C	 0.6656241134	-0.6898072481	 1.0302227826	 0.480345
C	 0.7541163754	-2.1675378059	 1.3332365682	-0.400031
C	 2.1994061741	-1.8233639718	 1.7721221625	 0.0875
O	 1.9726896589	-0.4214924963	 1.4384846963	-0.276233
C	 2.5348832662	-2.0277522431	 3.224816293	 0.057815
C	 2.9422863197	-0.917234978	 4.093078303	-0.168076
O	 1.6225432584	-1.4685020658	 4.1641929817	-0.232375
H	 1.1103981275	 1.7665615878	 0.6730115928	 0.122806
H	-0.1003389666	 1.7727659797	-0.6337306603	 0.126767
H	-0.6086860192	 2.0680572722	 1.025671533	 0.129961
H	 0.0985959715	-2.5022346478	 2.1383866587	 0.150838
H	 0.6550391317	-2.8242407389	 0.4680731128	 0.134461
H	 2.9891904434	-2.2403432827	 1.1383261139	 0.095093
H	 2.8774084227	-3.036374955	 3.4648851171	 0.098972
H	 3.5779503749	-1.1142568706	 4.9545694553	 0.118162
H	 2.9984495727	 0.0819937531	 3.6698395476	 0.137135
61.3432	74.9377	95.9193	173.8826	210.9549	257.7178	263.6814	439.9496	533.3352	559.6966	599.6833	702.181	779.9081	854.2323	905.7665	939.5454	955.836	992.6853	1018.2756	1047.6927	1091.7285	1093.014	1121.4032	1130.9336	1142.8484	1167.5573	1172.4492	1183.8133	1244.9709	1284.8625	1292.1624	1377.833	1433.0073	1439.978	1461.3945	1494.4788	1497.3763	1520.6985	1858.3779	3017.3333	3056.3991	3084.1505	3086.919	3090.7027	3093.608	3101.345	3149.9158	3198.3158
CN=C1CC(O1)C1CO1	CN=C1C[C@@H](O1)[C@H]1CO1	
InChI=1S/C6H9NO2/c1-7-6-2-4(9-6)5-3-8-5/h4-5H,2-3H2,1H3	InChI=1S/C6H9NO2/c1-7-6-2-4(9-6)5-3-8-5/h4-5H,2-3H2,1H3/t4-,5-/m1/s1
