26
gdb 102650	1.93869	0.99228	0.74661	1.0178	93.87	-0.2293	0.0889	0.3182	1690.7646	0.239292	-369.59083	-369.579739	-369.578795	-369.627891	40.415	
C	 0.0498059918	 1.501036128	 0.0900584891	-0.390593
C	-0.001805893	-0.0211699788	-0.0737935083	-0.175756
C	-1.4116229023	-0.632167091	 0.0534321556	 0.04913
C	-2.2842273558	-0.3374314131	-1.183071157	-0.181551
C	-3.7894815827	-0.5445633258	-0.9785914149	-0.388171
C	-1.3169844413	-2.1450721621	 0.3102327413	-0.157725
N	-0.6679238481	-2.4371309584	 1.5859728806	-0.05699
C	-1.5454551771	-2.5583874349	 2.7451640589	-0.219495
C	-0.904647633	-3.7611785111	 2.145032817	-0.221039
H	 1.0769090175	 1.8690710491	 0.0003198909	 0.109951
H	-0.5492031796	 2.0235404058	-0.6631744626	 0.112698
H	-0.323863397	 1.8022819019	 1.0753488867	 0.112258
H	 0.4187542076	-0.3025567543	-1.0498547815	 0.083698
H	 0.6376832159	-0.4853792732	 0.6833736234	 0.115557
H	-1.8986369575	-0.1798546277	 0.9310155261	 0.064936
H	-2.1187440934	 0.6997163514	-1.4950706307	 0.095639
H	-1.935340555	-0.9591986194	-2.0196760077	 0.090803
H	-4.3460936029	-0.2913015763	-1.8865762732	 0.111334
H	-4.0366623648	-1.5801400973	-0.7242984463	 0.115244
H	-4.1668041219	 0.0924640601	-0.1706417218	 0.113831
H	-2.319447719	-2.6056060078	 0.2598962321	 0.074352
H	-0.714246557	-2.6086518816	-0.4825515021	 0.09773
H	-1.1715003785	-2.1360495427	 3.673536926	 0.115194
H	-2.6168072358	-2.4378117171	 2.5883342671	 0.107441
H	-1.5505384812	-4.4410731872	 1.5907957168	 0.106418
H	-0.0527252361	-4.2342993465	 2.6255037742	 0.115106
56.6398	71.9396	80.1204	96.8235	159.4313	197.156	227.8282	263.4104	275.0072	330.6083	374.5195	438.9329	450.5418	513.748	753.9963	768.235	783.9316	824.7971	851.8733	891.543	920.334	972.434	979.6512	1024.2453	1032.6155	1033.2729	1049.9889	1058.3955	1112.7897	1117.5538	1136.7973	1157.6272	1175.5479	1186.026	1196.6705	1270.0426	1273.8181	1313.6755	1321.7582	1333.2695	1338.8674	1377.5809	1392.7744	1401.4805	1411.1722	1412.9932	1483.7201	1487.7847	1493.2743	1495.4268	1499.3494	1502.5897	1506.3694	1509.2087	1523.9483	2943.5491	2986.8407	3008.422	3014.9137	3029.624	3030.9347	3033.941	3059.3061	3074.1287	3089.8376	3094.3855	3096.1669	3097.0517	3100.5954	3103.2366	3172.8792	3187.3059
CCC(CC)CN1CC1	CCC(CC)CN1CC1	
InChI=1S/C8H17N/c1-3-8(4-2)7-9-5-6-9/h8H,3-7H2,1-2H3	InChI=1S/C8H17N/c1-3-8(4-2)7-9-5-6-9/h8H,3-7H2,1-2H3
