16
gdb 98961	2.81926	1.13464	0.8458	1.981	71.7	-0.2551	-0.0756	0.1795	1318.1719	0.123347	-471.21707	-471.20764	-471.206696	-471.252433	32.603	
C	-0.0475711158	 0.9036133457	-2.5275794527	-0.230295
O	 0.6249743112	-0.3194011262	-2.2054682772	-0.238379
C	 0.7520909302	-0.5978548927	-0.8956470195	 0.498034
N	 0.3447622266	 0.1956156642	 0.006399235	-0.577441
N	 1.3750570104	-1.8327993323	-0.7113544381	-0.396488
C	 1.9075387479	-2.6691826471	-1.6917841833	 0.269782
N	 2.9441142799	-3.358084315	-1.4278870098	-0.482099
C	 1.1274030117	-2.860115408	-2.9844890254	 0.123429
O	 1.6273927196	-3.41814029	-3.9259907287	-0.245427
H	-1.0589845126	 0.9061302975	-2.1150772346	 0.146394
H	 0.500382917	 1.7566627052	-2.1216976407	 0.150096
H	-0.0714369988	 0.9419621685	-3.616807322	 0.136755
H	 0.4914901982	-0.1772304175	 0.9404926451	 0.222663
H	 1.8247823894	-1.9503551433	 0.1860757727	 0.264497
H	 3.1428387153	-3.9624447268	-2.2289612593	 0.246719
H	 0.0788331598	-2.5194361122	-2.9858918114	 0.11176
54.5557	75.6845	87.0699	155.32	173.8313	232.4604	311.1622	333.4522	394.5003	451.1832	509.389	622.0516	688.8734	710.1917	738.8261	796.3316	866.5989	911.6286	921.8381	1024.6688	1084.6134	1109.6582	1176.9358	1182.2672	1218.7453	1359.2073	1401.4883	1426.8527	1449.3784	1475.648	1482.714	1501.4269	1698.8518	1745.9531	1820.6204	2998.4467	3057.0255	3136.6504	3161.3384	3458.6325	3533.0695	3603.9958
COC(=N)NC(=N)C=O	COC(=N)NC(=N)C=O	
InChI=1S/C4H7N3O2/c1-9-4(6)7-3(5)2-8/h2H,1H3,(H3,5,6,7)	InChI=1S/C4H7N3O2/c1-9-4(6)7-3(5)2-8/h2H,1H3,(H3,5,6,7)
