16
gdb 8508	3.75423	2.15074	1.64212	0.216	64.8	-0.2384	0.064	0.3024	819.8883	0.127755	-383.640772	-383.633495	-383.632551	-383.671756	28.153	
C	 0.0603596972	 1.4235819028	-0.1569654579	-0.536219
C	 0.0107168674	-0.0607349956	-0.0228759382	 0.422422
O	 0.5225838992	-0.9117287238	-1.0944636037	-0.370587
C	 0.0701798621	-1.895764108	-0.1138930887	 0.422421
C	 0.2151060146	-3.3532315796	-0.3939396998	-0.536219
C	 0.4871244784	-1.0225627217	 1.1169427002	-0.048789
O	-0.8178197612	-1.0966633979	 1.7581941779	-0.332482
C	-1.1567430596	-1.0374785808	 0.3435459969	-0.048777
H	 1.0928628732	 1.7671029263	-0.2716549974	 0.1371
H	-0.5124329974	 1.7522269394	-1.0293904403	 0.137124
H	-0.3664798015	 1.8856975755	 0.7382905782	 0.141679
H	 1.2669844949	-3.6155845618	-0.5420863642	 0.137133
H	-0.1749597828	-3.9281684405	 0.4513544407	 0.141679
H	-0.3408155747	-3.6310791646	-1.2944810206	 0.137093
H	 1.3858384971	-1.0240400571	 1.7344351041	 0.098211
H	-2.2052817668	-1.0566722627	 0.0449088127	 0.098211
197.7651	209.3327	213.4019	218.8191	256.9413	357.5206	528.9306	560.5269	596.8433	699.6834	746.6966	764.0434	766.1658	823.1848	855.5138	884.9312	940.4929	1016.968	1071.9259	1078.6191	1107.6263	1114.2304	1151.4853	1172.3851	1215.3649	1271.6519	1283.0741	1389.6569	1406.5437	1459.9186	1474.9659	1476.2609	1487.3922	1491.1151	3040.7374	3040.9569	3113.4588	3113.6247	3116.4233	3119.7942	3119.7969	3123.2146
CC12OC3(C)C1OC23	C[C@@]12O[C@@]3(C)[C@@H]1O[C@@H]23	
InChI=1S/C6H8O2/c1-5-3-6(2,8-5)4(5)7-3/h3-4H,1-2H3	InChI=1S/C6H8O2/c1-5-3-6(2,8-5)4(5)7-3/h3-4H,1-2H3/t3-,4+,5-,6+
