19
gdb 70624	2.39215	1.91011	1.32466	2.3081	75.17	-0.2331	0.0821	0.3151	1017.1151	0.158547	-422.999995	-422.991941	-422.990997	-423.03221	31.799	
C	-0.316032292	 1.4110866566	 0.1048604687	-0.505272
C	 0.0222103914	-0.0497241393	 0.0184537344	 0.321234
O	-0.3379748148	-0.8671357129	 1.1540699651	-0.293846
C	 1.0452864314	-0.742569403	 0.8112009826	-0.044849
C	 1.5495928898	-1.9006877814	-0.0203523788	-0.123439
O	 0.5963168694	-2.0534085998	-1.0694967327	-0.303219
C	-0.0845748144	-0.8317245689	-1.2622738347	 0.424042
C	-1.2833665809	-0.881821218	-2.1497860582	-0.327621
C	-0.0190321187	-0.1856726836	-2.6244709017	-0.340902
H	 0.3210086684	 2.006804809	-0.5552862696	 0.130411
H	-1.3596294563	 1.5890820803	-0.1774618756	 0.132159
H	-0.1819849266	 1.7609461868	 1.1307376999	 0.136516
H	 1.6885798758	-0.2489643998	 1.5355538145	 0.097073
H	 2.5534823379	-1.668244171	-0.4111537649	 0.095484
H	 1.5959151501	-2.8471039111	 0.52775352	 0.119354
H	-1.5199463419	-1.8462644511	-2.5841682657	 0.130174
H	-2.1445765706	-0.2752357861	-1.8911993681	 0.118135
H	-0.0224248438	 0.8956849331	-2.7090110973	 0.110948
H	 0.5818415656	-0.7013258398	-3.3648539177	 0.123617
104.436	187.5339	221.0151	227.9845	266.384	364.9984	379.3244	445.7295	483.858	579.0696	620.7469	727.1594	765.4378	808.8012	856.4997	886.1776	903.8338	933.6751	958.6723	975.4509	983.088	1043.4534	1053.3974	1073.3656	1083.407	1108.629	1117.4472	1168.4236	1189.6019	1230.4858	1278.5167	1291.0957	1371.9671	1391.1369	1409.8896	1449.1334	1459.8078	1488.2584	1496.1826	1501.2881	1507.5238	2978.01	3040.5044	3075.4913	3103.9583	3131.3522	3134.3233	3137.7002	3147.8156	3218.9939	3233.0143
CC12OC1COC21CC1	C[C@]12O[C@H]1COC12CC1	
InChI=1S/C7H10O2/c1-6-5(9-6)4-8-7(6)2-3-7/h5H,2-4H2,1H3	InChI=1S/C7H10O2/c1-6-5(9-6)4-8-7(6)2-3-7/h5H,2-4H2,1H3/t5-,6-/m0/s1
