15
gdb 49492	2.30744	1.6359	1.16815	1.0555	73.15	-0.2465	-0.0445	0.202	1051.7339	0.109903	-420.519378	-420.511373	-420.510429	-420.552322	29.915	
O	-0.7679555697	 0.8247628436	 0.4180305388	-0.246155
C	 0.1945271421	 0.9603457276	-0.2962343859	 0.120164
C	 1.3028372257	 1.9584802183	-0.0990402897	-0.125817
C	 1.1336341093	 3.4675984889	-0.4987497358	 0.005485
C	 0.1938173734	 3.6979949038	 0.7015263818	-0.271434
C	 1.4192681675	 2.8600198698	 1.1721753749	 0.360191
O	 2.2873479651	 3.7772617875	 0.362418293	-0.335594
C	 1.8241361299	 2.4903783511	 2.4919445525	 0.077494
C	 2.1461233885	 2.1681995003	 3.603911617	-0.348018
H	 0.3258333802	 0.3215808991	-1.199343619	 0.088511
H	 2.263832548	 1.5613897128	-0.4353606388	 0.109112
H	 1.1198355736	 3.8983318847	-1.4982849874	 0.112011
H	 0.1878866306	 4.7212753119	 1.0760274258	 0.121213
H	-0.7792306767	 3.2107226429	 0.7198386469	 0.139373
H	 2.4313424027	 1.8847860975	 4.5873155058	 0.193464
67.0606	117.5214	172.0754	219.2153	269.6745	412.7384	477.1994	502.3691	558.266	582.3497	638.5977	689.7956	695.3833	745.4349	792.2971	889.1366	903.3601	938.8792	977.544	1012.6796	1066.5836	1087.5112	1099.6386	1143.0135	1208.4235	1216.948	1237.6093	1278.9852	1371.1672	1426.4897	1492.5908	1817.6956	2243.4895	2871.1647	3093.9762	3098.9782	3142.3988	3184.8229	3498.7663
O=CC1C2CC1(O2)C#C	O=C[C@H]1[C@H]2C[C@@]1(O2)C#C	
InChI=1S/C7H6O2/c1-2-7-3-6(9-7)5(7)4-8/h1,4-6H,3H2	InChI=1S/C7H6O2/c1-2-7-3-6(9-7)5(7)4-8/h1,4-6H,3H2/t5-,6+,7-/m0/s1
