23
gdb 82091	2.73605	1.27454	1.01971	0.2018	89.19	-0.2485	0.087	0.3356	1279.5885	0.206513	-351.113747	-351.104913	-351.103969	-351.147354	34.765	
C	-0.2217025768	 1.4960436319	 0.0181239926	-0.405042
C	 0.0754843918	 0.0013978272	 0.075105359	-0.004345
C	 1.0061589064	-0.6113884458	-0.9834154604	-0.053566
C	 2.4145518475	-0.1097902424	-0.8310236652	-0.284524
C	 1.9196476008	-1.1766103939	 0.1054354098	-0.061817
C	 1.0226419311	-0.5836824928	 1.2046495193	-0.016104
C	 1.6421472552	 0.3282373179	 2.2320880909	 0.031314
C	 0.9227372902	 0.6131067876	 3.5290005863	-0.271759
C	 2.1625392523	-0.2456809189	 3.5282909204	-0.276355
H	 0.6902027757	 2.0983468474	-0.0364069461	 0.111001
H	-0.8254976499	 1.7340623116	-0.8647912902	 0.109453
H	-0.7794600768	 1.8210709118	 0.9026540472	 0.116019
H	-0.8728675564	-0.544845956	 0.0977854347	 0.068951
H	 0.6731783258	-1.0861591132	-1.8990873146	 0.077816
H	 3.1085685748	-0.4549764207	-1.59097372	 0.10743
H	 2.6214083019	 0.8981788096	-0.4816073942	 0.10336
H	 2.3956828278	-2.1490889987	 0.1534059761	 0.078921
H	 0.491804197	-1.3843754713	 1.7313250196	 0.061682
H	 2.2192863571	 1.1549116356	 1.8282618057	 0.076326
H	 0.9860422899	 1.6110377469	 3.9488337257	 0.10813
H	-0.0312468865	 0.1230152415	 3.6963564866	 0.107062
H	 2.0409578473	-1.3114806833	 3.6938959918	 0.107754
H	 3.0749517838	 0.1648398582	 3.9465400652	 0.108292
64.1186	128.7013	148.1006	206.3252	242.3154	274.467	310.8863	443.1563	481.0637	548.8034	669.1095	746.6026	778.839	793.3592	809.1401	829.8378	886.4936	906.8034	933.3357	937.4388	969.2507	994.8332	1019.2821	1044.531	1053.2725	1060.9434	1069.1376	1074.2414	1083.5959	1098.752	1133.5772	1134.0717	1179.6231	1196.8014	1199.6729	1225.9763	1241.2056	1273.8927	1302.472	1314.3284	1366.4107	1370.7401	1409.4631	1432.7976	1469.519	1488.1167	1497.2512	1501.7841	1504.6613	3030.4775	3032.1424	3052.1592	3093.9113	3103.6669	3116.0033	3126.0256	3130.8552	3146.9395	3168.3419	3177.4278	3199.0905	3203.474	3219.088
CC1C2CC2C1C1CC1	C[C@H]1[C@H]2C[C@H]2[C@H]1C1CC1	
InChI=1S/C9H14/c1-5-7-4-8(7)9(5)6-2-3-6/h5-9H,2-4H2,1H3	InChI=1S/C9H14/c1-5-7-4-8(7)9(5)6-2-3-6/h5-9H,2-4H2,1H3/t5-,7+,8+,9+/m0/s1
