16
gdb 85199	2.6544	1.20719	0.89282	6.2447	68.99	-0.2857	-0.0081	0.2776	1258.7234	0.123628	-437.928691	-437.919961	-437.919017	-437.962988	30.798	
C	 0.1326376298	 1.4881902463	-0.2600440277	-0.407305
C	-0.0733514653	 0.037248196	 0.1158667576	 0.116502
O	 0.5977461814	-0.8703650454	-0.8298993558	-0.251181
C	 1.376165821	-1.4214994086	 0.1543214424	 0.460145
O	 2.2267935744	-2.2413872752	 0.0430175167	-0.307163
C	 0.7398586392	-0.5920434122	 1.2778021381	-0.215734
C	 1.6773236811	 0.2889113523	 2.1162216049	-0.368932
C	 2.3874416223	-0.478195238	 3.1381524613	 0.275973
N	 2.9313733334	-1.0787738456	 3.9610673436	-0.291313
H	 1.1936760068	 1.7396283541	-0.3399489533	 0.133402
H	-0.3348143017	 1.6902972804	-1.2275265797	 0.14688
H	-0.331006725	 2.1454304691	 0.4829421044	 0.131726
H	-1.1369396518	-0.2132260891	 0.1518027758	 0.109792
H	 0.1268362107	-1.2132375902	 1.9350054051	 0.138549
H	 2.4138948146	 0.7948666401	 1.4843066303	 0.165969
H	 1.0966723788	 1.0709686861	 2.6191466363	 0.162689
57.442	89.7427	119.7226	209.8133	218.0711	243.8738	361.5842	387.0931	468.4343	500.8375	526.7827	694.2721	743.2233	815.91	856.7628	890.7803	944.8876	996.3244	1041.2187	1048.4003	1127.2065	1144.9528	1161.2501	1189.8538	1250.6539	1305.634	1329.2944	1376.936	1388.3058	1417.0231	1464.1243	1485.5228	1499.3285	1943.2141	2369.5771	3043.6131	3048.28	3074.2299	3087.4605	3100.3278	3117.4755	3127.19
CC1OC(=O)C1CC#N	C[C@H]1OC(=O)[C@H]1CC#N	
InChI=1S/C6H7NO2/c1-4-5(2-3-7)6(8)9-4/h4-5H,2H2,1H3	InChI=1S/C6H7NO2/c1-4-5(2-3-7)6(8)9-4/h4-5H,2H2,1H3/t4-,5+/m1/s1
