21
gdb 73814	2.38442	1.58227	1.10296	1.2928	85.4	-0.2114	0.0305	0.2419	1178.7199	0.181221	-387.100706	-387.091338	-387.090394	-387.13409	36.143	
C	 0.0939015585	 1.5244001556	 0.1555574086	-0.493003
C	 0.0089662951	 0.0366479522	 0.0130758445	 0.206782
C	-0.0538700383	-0.6924347382	-1.1119686904	 0.170686
C	-0.110363181	-0.238099746	-2.5363932563	-0.521184
C	-0.0487385196	-2.1636764823	-0.7996858464	 0.322649
O	-0.8721024164	-3.0159645376	-1.5419891106	-0.4653
C	 1.2110209417	-2.6937582624	-0.1517858987	-0.345871
C	 0.029876176	-2.2673975964	 0.7018340413	-0.092286
C	 0.0140112176	-0.8475288476	 1.2518455732	-0.316976
H	 1.0347628296	 1.8255712087	 0.6348554051	 0.122639
H	 0.0313938031	 2.0412647317	-0.805221927	 0.12103
H	-0.7135597654	 1.9042397852	 0.795354905	 0.122605
H	-0.2038326542	 0.8462997604	-2.6276523412	 0.122977
H	 0.7883630555	-0.5442151507	-3.089554738	 0.118108
H	-0.9653395762	-0.6982556068	-3.0454064678	 0.133885
H	-0.3693378544	-3.3304023584	-2.3004417951	 0.28258
H	 1.3772672593	-3.7649768736	-0.215387066	 0.105883
H	 2.108397744	-2.0824494682	-0.1705211195	 0.105681
H	-0.5134901996	-3.0512882369	 1.2148336427	 0.092573
H	 0.8820158513	-0.6395801369	 1.8927279357	 0.102969
H	-0.8742058066	-0.6606544919	 1.8718775708	 0.103574
133.2414	146.9635	171.1668	176.1291	256.7442	266.6043	290.2685	295.2851	396.5911	421.6641	440.9459	544.9982	585.9291	635.7054	664.3648	803.4974	846.7276	872.843	903.2846	927.9426	974.0938	979.416	1044.2922	1048.509	1063.5285	1077.5517	1093.4553	1118.082	1150.4474	1196.0967	1213.1239	1235.4015	1318.1149	1338.6304	1342.393	1388.6905	1408.0149	1418.5038	1468.5534	1477.4778	1480.865	1482.0841	1490.3679	1496.8831	1732.0096	3003.7042	3012.122	3014.4857	3030.3299	3054.256	3065.7552	3112.0344	3113.6815	3120.9898	3187.6353	3207.1902	3806.9529
CC1=C(C)C2(O)CC2C1	CC1=C(C)[C@@]2(O)C[C@H]2C1	
InChI=1S/C8H12O/c1-5-3-7-4-8(7,9)6(5)2/h7,9H,3-4H2,1-2H3	InChI=1S/C8H12O/c1-5-3-7-4-8(7,9)6(5)2/h7,9H,3-4H2,1-2H3/t7-,8+/m1/s1
