13
gdb 47956	2.9744	0.85897	0.7139	3.925	71.62	-0.282	-0.0867	0.1953	1496.2859	0.08589	-456.515184	-456.506225	-456.505281	-456.55087	29.312	
O	-0.1230081171	 0.4837593342	 0.8718803254	-0.210211
C	 0.5285643611	 1.4738259426	 1.1000222711	 0.027033
C	 1.5447523784	 1.9918140432	 0.2128000375	 0.012582
C	 2.4024596693	 2.4448421097	-0.5105624056	 0.104035
C	 3.3722030314	 3.0269396371	-1.4252604513	 0.224834
O	 3.0346656851	 3.7773016924	-2.3134101966	-0.274311
C	 4.807346845	 2.653124803	-1.2045970163	-0.012861
C	 5.3866246516	 2.6782087917	 0.1559833692	-0.184094
O	 5.0634175616	 1.4528412182	-0.480413447	-0.210221
H	 0.3931075673	 2.0698508386	 2.0243760077	 0.114644
H	 5.4470939773	 2.8529218687	-2.0615942316	 0.133257
H	 6.4477362152	 2.8979646781	 0.2575439073	 0.140739
H	 4.758722854	 2.9465932625	 1.0033339102	 0.134576
45.2288	70.2912	82.0149	108.3562	206.3855	233.3833	311.4432	325.897	427.4471	547.5925	652.5672	729.3682	750.4079	882.8929	890.776	946.4657	1016.0061	1039.9694	1088.5131	1154.4342	1162.0002	1244.2704	1267.4857	1385.0022	1417.3871	1515.5284	1765.2297	1774.8442	2297.0368	2932.3598	3093.7224	3148.3931	3188.823
O=CC#CC(=O)C1CO1	O=CC#CC(=O)[C@H]1CO1	
InChI=1S/C6H4O3/c7-3-1-2-5(8)6-4-9-6/h3,6H,4H2	InChI=1S/C6H4O3/c7-3-1-2-5(8)6-4-9-6/h3,6H,4H2/t6-/m1/s1
