16
gdb 55567	5.31293	0.75435	0.66601	5.766	73.8	-0.2481	-0.0245	0.2236	1619.0714	0.120213	-437.907249	-437.897052	-437.896108	-437.944431	34.628	
C	-0.2824777137	 1.5543342123	 0.0147893569	-0.502696
C	 0.1711376989	 0.1019102804	 0.0009720052	 0.414635
O	 1.3235271479	-0.2386930843	-0.013606556	-0.287904
N	-0.9106904263	-0.7984653095	 0.0071491512	-0.394471
C	-0.8598309846	-2.1988983693	-0.0023180919	 0.446112
O	 0.1490196461	-2.845118856	-0.0170009745	-0.280137
C	-2.2807438018	-2.8067820313	 0.0079292971	-0.522805
C	-2.2945666616	-4.2578377857	 0.0020956341	 0.337561
C	-2.3255102844	-5.4573539338	-0.002405803	-0.422689
H	 0.599790063	 2.1928318744	 0.0108181562	 0.16124
H	-0.8973009691	 1.7805484317	-0.8631887614	 0.142911
H	-0.8811710825	 1.7690642553	 0.906675772	 0.142796
H	-1.8304189996	-0.3832623523	 0.0196107061	 0.253554
H	-2.8109929314	-2.4236427527	 0.8910037553	 0.154166
H	-2.826090979	-2.4164745107	-0.862747269	 0.154396
H	-2.337396472	-6.5191610587	-0.0062182682	 0.203332
24.1661	52.6231	89.3646	104.8046	105.0989	198.151	305.1711	317.5684	377.957	399.5788	538.8019	562.1166	565.0799	626.8512	639.4349	655.5626	740.3805	864.6766	916.094	953.8019	1012.6135	1030.2137	1051.0202	1141.1702	1216.4998	1222.0674	1330.295	1385.7233	1450.3532	1466.4542	1482.7506	1506.6125	1822.4724	1876.9212	2254.9619	3009.2612	3040.0655	3040.2125	3102.3778	3167.8262	3507.351	3612.8143
CC(=O)NC(=O)CC#C	CC(=O)NC(=O)CC#C	
InChI=1S/C6H7NO2/c1-3-4-6(9)7-5(2)8/h1H,4H2,2H3,(H,7,8,9)	InChI=1S/C6H7NO2/c1-3-4-6(9)7-5(2)8/h1H,4H2,2H3,(H,7,8,9)
