16
gdb 80285	2.52148	1.64247	1.34931	5.6465	64.81	-0.2448	0.0428	0.2876	995.7227	0.124015	-475.048443	-475.040345	-475.039401	-475.080756	30.839	
C	-0.0559639984	 1.5065311513	-0.0131019682	-0.469959
C	 0.0329734167	 0.0122104282	 0.0711019792	 0.382169
O	-1.2002620147	-0.6353931655	-0.1732352317	-0.264468
C	-1.2981340937	-1.7797121324	 0.5825197206	 0.470844
O	-2.1886543948	-2.5721214265	 0.4813535501	-0.383128
N	-0.2227878442	-1.8067423463	 1.4547605331	-0.355113
C	 0.7367372031	-0.7982501886	 1.1430441224	-0.156359
C	 1.2669274099	-0.7771289055	-0.2963786411	 0.011991
O	 1.1072889789	-1.8764020926	-1.1255640348	-0.405009
H	 0.916325161	 1.9599382709	 0.1978474426	 0.123441
H	-0.3675280189	 1.8135835296	-1.0161800943	 0.145073
H	-0.7834968423	 1.891173328	 0.7077951617	 0.137905
H	 0.0252036912	-2.6985460296	 1.8513545403	 0.260868
H	 1.2906142531	-0.3562659689	 1.9642911211	 0.110557
H	 2.1640379578	-0.1766624953	-0.4537529396	 0.097596
H	 1.7172082053	-2.5673168568	-0.8448769416	 0.293591
121.4999	194.6768	218.9104	226.1865	270.4309	289.7158	312.7106	457.3541	504.6011	556.7534	612.2613	662.6748	717.1782	764.0172	780.7972	847.8868	885.7406	934.6352	1001.6186	1005.9665	1052.7867	1123.0555	1131.9332	1175.5073	1195.7	1249.3178	1296.0788	1316.1547	1371.9992	1391.4068	1420.3127	1471.0645	1478.6472	1503.6021	1902.0783	3042.9159	3093.9844	3114.3195	3122.8058	3164.7837	3651.074	3801.0975
CC12OC(=O)NC1C2O	C[C@]12OC(=O)N[C@H]1[C@H]2O	
InChI=1S/C5H7NO3/c1-5-2(3(5)7)6-4(8)9-5/h2-3,7H,1H3,(H,6,8)	InChI=1S/C5H7NO3/c1-5-2(3(5)7)6-4(8)9-5/h2-3,7H,1H3,(H,6,8)/t2-,3+,5-/m0/s1
