21
gdb 121429	5.3	0.60955	0.57355	1.8361	88.21	-0.2454	-0.0121	0.2333	1972.5193	0.180794	-420.449112	-420.438332	-420.437388	-420.487012	37.297	
C	-1.5669660321	 2.0457260566	-0.7306608492	-0.380063
C	-1.358528299	 0.5404954743	-0.9100550207	-0.151275
C	-2.2070148807	-0.292029645	 0.0622183845	-0.147675
N	-2.0672613282	-1.7025547802	-0.2222989329	-0.282322
C	-1.6111320752	-2.5472584252	 0.6113405339	 0.36514
C	-1.1375976868	-2.3512397436	 2.0277094418	-0.464381
N	-1.5521262577	-3.8669307059	 0.1083731268	-0.31656
C	-1.1333279426	-5.0329686826	 0.6937616358	 0.159361
O	-0.7056402745	-5.1747793873	 1.8169438777	-0.311956
H	-0.9517828924	 2.6165469819	-1.4326075256	 0.115246
H	-2.6125966266	 2.3248961313	-0.9019533698	 0.115612
H	-1.3008028557	 2.3690797072	 0.2819631911	 0.114019
H	-1.6080798209	 0.2391843051	-1.9335051971	 0.106854
H	-0.3015829412	 0.2864197177	-0.762438035	 0.096173
H	-1.9569866383	-0.0071102376	 1.094858886	 0.088881
H	-3.264042747	-0.0301113182	-0.0856044788	 0.105262
H	-1.7301470195	-2.9597520035	 2.7147749002	 0.159708
H	-0.106842061	-2.6958263538	 2.1352382398	 0.16024
H	-1.2038476867	-1.3049830352	 2.3216815977	 0.127437
H	-1.885608736	-3.9219490618	-0.8450335025	 0.253562
H	-1.236696168	-5.8764416942	-0.0173197037	 0.086736
18.5265	52.0792	84.717	109.1669	146.7373	215.6951	233.3459	258.367	293.6508	334.9379	374.0928	464.0652	544.8094	565.3818	709.9144	752.0209	772.391	846.5872	893.7294	897.0743	978.1765	1029.2938	1044.6418	1058.9959	1106.1913	1122.3051	1146.7281	1183.5947	1269.7944	1302.7861	1319.8364	1326.5995	1387.0643	1412.7226	1415.7293	1447.4581	1457.6356	1472.6898	1490.1052	1498.249	1499.456	1506.3148	1517.375	1741.8704	1811.7554	2938.4125	2988.1701	3021.1907	3030.0512	3034.6245	3069.4235	3071.4031	3098.3485	3105.1793	3131.4914	3164.865	3591.6312
CCCN=C(C)NC=O	CCCN=C(C)NC=O	
InChI=1S/C6H12N2O/c1-3-4-7-6(2)8-5-9/h5H,3-4H2,1-2H3,(H,7,8,9)	InChI=1S/C6H12N2O/c1-3-4-7-6(2)8-5-9/h5H,3-4H2,1-2H3,(H,7,8,9)
