23
gdb 96474	2.27957	1.43399	0.98191	1.1133	87.64	-0.2256	0.0247	0.2504	1288.2945	0.206766	-388.308725	-388.299434	-388.29849	-388.342302	36.474	
C	-0.1356215404	 1.5376951072	 0.0175417478	-0.475696
C	-0.0527435188	 0.033310814	 0.0029127121	 0.279464
C	-0.0541551673	-0.65683027	-1.1409181934	-0.14961
C	 0.0817567684	-2.156544994	-1.2673898757	-0.250615
C	 1.4090916587	-2.7176207964	-0.7162649323	-0.173349
C	 1.5003085442	-2.7476556838	 0.8160276882	-0.197374
C	 1.406467472	-1.3933391794	 1.5334004375	-0.174734
C	 0.0603825416	-0.6744429616	 1.3522837826	 0.034514
O	-0.0637203993	 0.2196031846	 2.4563507022	-0.437113
H	 0.6956368265	 1.9775352069	 0.5790395049	 0.136351
H	-0.1231815023	 1.9359981673	-1.0001228007	 0.116342
H	-1.0536447611	 1.8986403259	 0.5005134037	 0.106313
H	-0.1265755605	-0.100709406	-2.0733475136	 0.075321
H	-0.7512455936	-2.6634735876	-0.7563026394	 0.100183
H	-0.0064321653	-2.4306305878	-2.3235266195	 0.093861
H	 1.5369333347	-3.7428974619	-1.0850876972	 0.088736
H	 2.2411334347	-2.132332927	-1.127413719	 0.094713
H	 0.7057438236	-3.4025703439	 1.2018581393	 0.09166
H	 2.4457855302	-3.2238055008	 1.1018106504	 0.093562
H	 1.5340786893	-1.5538210291	 2.6094642413	 0.103755
H	 2.216400145	-0.7283543371	 1.2106730953	 0.095839
H	-0.7341498533	-1.4393417576	 1.4138108064	 0.068622
H	-0.9350411472	 0.625369878	 2.4199547191	 0.279256
73.8312	158.7667	195.463	233.3882	276.1998	295.0854	315.8956	316.8749	363.1905	413.3752	454.2343	515.5184	587.1914	608.9511	737.9688	809.1187	814.5938	856.7169	878.6084	934.2486	968.0688	1002.2606	1009.425	1055.9876	1076.5831	1098.5703	1099.1317	1112.8901	1139.0654	1205.0848	1229.3459	1250.3353	1285.3965	1300.7276	1338.3801	1358.503	1362.8408	1379.9718	1389.7766	1391.6467	1406.7417	1419.9683	1475.8419	1479.745	1481.6626	1486.4212	1489.7755	1495.0903	1727.9517	2931.2099	2988.2579	3005.3725	3014.0647	3018.5754	3031.8407	3053.5916	3061.7799	3066.4046	3069.7395	3079.2038	3115.9238	3141.2298	3826.1018
CC1=CCCCCC1O	CC1=CCCCC[C@H]1O	
InChI=1S/C8H14O/c1-7-5-3-2-4-6-8(7)9/h5,8-9H,2-4,6H2,1H3	InChI=1S/C8H14O/c1-7-5-3-2-4-6-8(7)9/h5,8-9H,2-4,6H2,1H3/t8-/m1/s1
