17
gdb 34300	3.43206	1.43594	1.28564	1.9366	73.01	-0.2553	0.0373	0.2925	1006.7508	0.137355	-421.797135	-421.789885	-421.788941	-421.828631	29.085	
C	-0.0376705153	-1.1467689844	-0.0098278361	-0.335945
C	-0.0029686361	 0.0548640878	 0.0000766888	 0.070474
C	 0.0101520645	 1.4980453932	 0.0130007348	 0.135875
C	-0.6234860139	 2.1639183996	 1.2656025556	-0.104005
O	-0.1578854667	 3.5231481598	 1.1959639531	-0.265569
C	 0.6391195095	 3.5904100355	 0.0253635812	 0.175745
C	 1.3709518573	 2.2481737506	 0.005445411	-0.280756
O	-0.1824475969	 3.5442528684	-1.1291685653	-0.265571
C	-0.6496829974	 2.186423912	-1.2136312477	-0.103982
H	-0.0606621765	-2.2084400316	-0.0191833173	 0.186428
H	-1.7180191849	 2.1384534276	 1.2358876316	 0.114012
H	-0.2782249822	 1.6946242796	 2.1938842633	 0.112109
H	 1.1982986963	 4.5238083875	 0.0279295902	 0.09592
H	 1.9723661602	 2.0627345659	 0.8963788237	 0.119576
H	 1.95338405	 2.0790602343	-0.9012089015	 0.119572
H	-0.3242066719	 1.7341327495	-2.157370395	 0.1121
H	-1.7433481459	 2.1602192149	-1.1612566304	 0.114015
140.0507	150.839	201.1947	373.4511	453.7	482.3469	510.1469	520.5652	543.1765	594.3006	636.9219	644.4149	796.1199	815.807	903.793	920.5734	946.5555	947.0812	967.1085	1012.6794	1031.3575	1069.9776	1093.3904	1140.0102	1174.04	1207.2416	1231.5559	1235.8268	1264.4637	1300.9314	1319.203	1372.1411	1396.1039	1488.3668	1517.5864	1535.0608	2241.6035	3029.2614	3031.2022	3075.0002	3079.9941	3087.2383	3151.0722	3156.5358	3501.8431
C#CC12COC(C1)OC2	C#C[C@@]12CO[C@@H](C1)OC2	
InChI=1S/C7H8O2/c1-2-7-3-6(8-4-7)9-5-7/h1,6H,3-5H2	InChI=1S/C7H8O2/c1-2-7-3-6(8-4-7)9-5-7/h1,6H,3-5H2/t6-,7+
