15
gdb 124100	3.95191	1.50036	1.10283	2.9115	72.79	-0.2353	-0.0467	0.1886	1020.6234	0.115563	-416.823129	-416.816401	-416.815456	-416.855287	24.983	
C	-0.0274571383	 1.5191460276	 0.0917074989	-0.175191
O	 1.2959515919	 1.9489614302	-0.2295840397	-0.272876
C	 2.1255697072	 0.8502583932	-0.6090120557	-0.175191
C	 1.2840400556	-0.3724687898	-0.376895525	 0.215467
C	 1.5272828024	-1.7345881616	-0.4988126623	-0.082346
N	 0.593951201	-2.6542322989	-0.2324959251	-0.199005
N	-0.618642556	-2.2775119755	 0.1621522694	-0.199005
C	-0.9066564688	-0.9784285787	 0.2933320551	-0.082346
C	 0.0245380653	 0.0188246623	 0.0330193237	 0.215467
H	-0.3005229579	 1.8955827328	 1.0866675295	 0.128634
H	-0.7480491558	 1.9335497255	-0.6293206552	 0.124402
H	 2.4273513606	 0.9470380412	-1.6627797782	 0.124402
H	 3.0398093677	 0.8578311636	-0.0004699506	 0.128634
H	 2.48798728	-2.1308590096	-0.8151674036	 0.124478
H	-1.9198961442	-0.7614479766	 0.6194129948	 0.124478
35.3073	181.2563	217.0855	370.9493	412.8808	509.6035	532.3465	615.9593	751.1709	776.8463	861.8835	888.2244	907.1743	928.7222	971.2439	1020.7677	1057.8016	1065.6844	1085.7703	1179.7426	1179.9708	1183.563	1223.6873	1264.7951	1299.8079	1306.8964	1376.8798	1387.6742	1499.9399	1508.1037	1520.9784	1602.4564	1619.4547	2988.6847	2994.5511	3025.708	3029.0567	3170.9558	3172.8804
C1OCC2=CN=NC=C12	C1OCc2cnncc12	
InChI=1S/C6H6N2O/c1-5-3-9-4-6(5)2-8-7-1/h1-2H,3-4H2	InChI=1S/C6H6N2O/c1-5-3-9-4-6(5)2-8-7-1/h1-2H,3-4H2
