23
gdb 120967	3.50599	0.92321	0.89086	0.7843	85.65	-0.2504	0.0846	0.335	1455.346	0.207032	-388.280315	-388.271214	-388.27027	-388.314543	34.474	
C	-0.3644759958	 1.2863706781	 0.5293388261	-0.227508
O	-0.1660701327	-0.0653239256	 0.196407293	-0.22934
C	-1.3726438574	-0.7909121796	 0.0877124286	-0.067199
C	-1.0379925061	-2.2414922662	-0.2565854235	-0.007934
C	-0.2217379925	-2.9700669982	 0.8523684858	-0.229569
C	-1.1670751888	-3.9625336113	 1.5137811694	-0.018617
C	-2.4698684235	-3.445638177	 2.0731479817	-0.290235
C	-2.432895145	-4.0509023203	 0.691493085	-0.016289
C	-2.3078088919	-3.1111501791	-0.4998878806	-0.252647
H	 0.6194260666	 1.7584877422	 0.5887396875	 0.125492
H	-0.9647419647	 1.8120887305	-0.2307121108	 0.101614
H	-0.871665222	 1.3997481786	 1.5010475377	 0.102072
H	-1.9426500137	-0.718074768	 1.0297549406	 0.084902
H	-2.0080302289	-0.3558263661	-0.7035453932	 0.082205
H	-0.4414092618	-2.1922652975	-1.1726526064	 0.08276
H	 0.614586588	-3.5163956832	 0.4030039427	 0.0948
H	 0.2157316438	-2.2510876368	 1.5523513249	 0.108001
H	-0.7372496641	-4.846811505	 1.9721978667	 0.076278
H	-2.9389338024	-4.0318152344	 2.8566121301	 0.105835
H	-2.616927241	-2.3761485247	 2.1837443239	 0.107063
H	-2.9385204252	-4.9983899093	 0.5391483441	 0.076593
H	-3.2020430563	-2.492019165	-0.6446623487	 0.093373
H	-2.1880348845	-3.702376002	-1.4140651747	 0.098349
72.0524	99.7503	123.1242	167.2695	232.7595	267.9858	326.2335	370.8931	391.2682	465.8415	629.6044	716.2925	758.0745	820.637	824.9417	873.3997	892.8592	909.1483	962.6721	979.5671	1000.0739	1028.5383	1055.5309	1076.9743	1085.8953	1108.004	1119.1315	1138.764	1161.5935	1183.1481	1203.289	1208.913	1221.7941	1241.8768	1253.4199	1288.302	1323.1677	1326.9784	1347.8616	1372.1876	1399.8813	1421.7885	1480.3432	1485.1465	1489.7243	1494.5403	1501.7487	1508.7204	1527.2984	2944.6448	2967.503	2974.3463	3008.4296	3025.8845	3039.842	3054.2316	3068.7388	3082.355	3111.042	3127.3971	3157.6139	3166.9834	3208.3837
COCC1CC2CC2C1	COC[C@H]1C[C@H]2C[C@H]2C1	
InChI=1S/C8H14O/c1-9-5-6-2-7-4-8(7)3-6/h6-8H,2-5H2,1H3	InChI=1S/C8H14O/c1-9-5-6-2-7-4-8(7)3-6/h6-8H,2-5H2,1H3/t6-,7-,8+
