25
gdb 112905	2.9574	1.05096	0.94777	1.2964	88.39	-0.2594	0.066	0.3254	1421.9559	0.229268	-389.516543	-389.506307	-389.505363	-389.551991	38.887	
C	-0.0339747052	 1.5910844867	-0.0615249006	-0.388748
C	-0.074571169	 0.0653092072	 0.0707837231	-0.187503
C	 0.7795947189	-0.4859663878	 1.2158687788	 0.039453
C	 0.6874204252	-2.0161666024	 1.4004117766	-0.235162
C	 1.9755475907	-2.4494837265	 2.1605862894	 0.050819
C	 2.658171299	-3.6577236432	 1.5111152015	-0.396626
C	 2.8753602356	-1.1780131881	 2.1709785532	-0.253062
C	 2.2947261434	-0.2492263748	 1.0957592303	 0.118635
O	 2.6853514482	-0.6483354816	-0.2198386736	-0.440426
H	 0.9743227715	 1.9419033059	-0.3034169747	 0.121286
H	-0.7013453755	 1.9348844496	-0.8581730277	 0.10824
H	-0.3464462014	 2.0829668296	 0.8670990693	 0.106162
H	-1.1118411751	-0.2592342272	 0.2245129413	 0.085966
H	 0.2603010253	-0.3923455205	-0.8659765551	 0.113746
H	 0.4679826937	 0.0005046179	 2.1517871874	 0.062153
H	-0.2262081346	-2.3111562232	 1.9250806126	 0.087674
H	 0.6597125288	-2.4957332406	 0.4157905083	 0.103425
H	 1.7224789331	-2.7142852748	 3.1929420527	 0.064231
H	 2.9606572146	-3.4151375931	 0.4870195056	 0.121119
H	 3.5516897145	-3.9611707093	 2.0681975899	 0.103213
H	 1.9831643427	-4.5196225715	 1.4684611892	 0.10856
H	 2.8257101571	-0.6740443365	 3.1430638535	 0.093091
H	 3.9320410713	-1.406075169	 1.9877491186	 0.078861
H	 2.5683624525	 0.8017217332	 1.2666758785	 0.054112
H	 3.6447148744	-0.5995012501	-0.2694179082	 0.280783
38.9728	79.3961	123.6919	198.1063	228.4637	269.6878	283.3946	304.9462	319.601	372.3448	398.6715	436.3221	516.1414	599.037	711.8277	781.7737	797.4985	843.5568	869.0637	914.3743	925.6257	941.9651	1000.6052	1013.0252	1021.4622	1034.7213	1070.5691	1079.1481	1105.5904	1155.4733	1165.807	1205.6354	1226.5644	1235.3282	1278.658	1289.2197	1301.3959	1332.9354	1337.9448	1346.4606	1370.5591	1379.4981	1394.1777	1406.2262	1410.0145	1423.0505	1482.0517	1484.1118	1494.9883	1498.6074	1500.3	1505.6331	1507.7925	2989.334	3000.9347	3023.8434	3024.2905	3026.5749	3029.1699	3037.075	3043.5649	3069.6534	3073.0382	3086.0537	3090.8404	3096.7956	3103.8101	3104.8296	3825.3223
CCC1CC(C)CC1O	CC[C@H]1C[C@@H](C)C[C@H]1O	
InChI=1S/C8H16O/c1-3-7-4-6(2)5-8(7)9/h6-9H,3-5H2,1-2H3	InChI=1S/C8H16O/c1-3-7-4-6(2)5-8(7)9/h6-9H,3-5H2,1-2H3/t6-,7+,8-/m1/s1
