18
gdb 82152	3.15072	1.06943	0.91049	3.1915	72.35	-0.2385	-0.021	0.2174	1280.9662	0.146333	-439.035127	-439.026318	-439.025373	-439.069746	31.964	
O	-0.2526778009	 1.4674846244	 0.1380806455	-0.422595
C	 0.0076395081	 0.0913258694	-0.0262237148	 0.067376
C	-1.2326521955	-0.7746338991	 0.1195988136	-0.030433
C	-2.2141922267	-0.4505264003	-0.9299742249	-0.246246
N	-1.099627668	-1.3498366515	-1.286564793	-0.143743
C	 0.1295344065	-0.4909917529	-1.4758043963	-0.00906
C	 0.1576676573	 0.4647528938	-2.6671509271	-0.298236
C	 0.0216420875	-0.2690034762	-3.9848807682	 0.156871
O	 0.8098469996	-0.1866185439	-4.892468747	-0.241874
H	 0.5850375876	 1.9414830892	 0.1260090855	 0.289616
H	 0.8350212309	-0.2370770504	 0.6130149765	 0.08329
H	-1.4646978754	-1.4014254865	 0.9733422728	 0.100673
H	-3.1646808451	-0.9731670067	-0.8954064332	 0.127141
H	-2.2659854472	 0.5582737923	-1.3261333868	 0.130855
H	 0.9813011621	-1.1746567949	-1.5410553427	 0.095462
H	-0.6592445064	 1.192382638	-2.5888037259	 0.129307
H	 1.0986052019	 1.0241390341	-2.6817196196	 0.115569
H	-0.8810566465	-0.912861629	-4.0650112144	 0.096028
54.0306	55.9776	139.3117	161.1514	242.5859	292.9922	312.7459	457.5972	465.5809	558.3334	573.2064	737.3417	762.6318	778.1608	809.2756	848.2395	935.1037	957.04	993.3582	1031.5145	1061.9992	1094.2176	1102.6394	1112.5316	1141.2342	1162.1745	1194.7538	1215.979	1240.9305	1256.6954	1294.5126	1312.2132	1370.5503	1379.6511	1427.6144	1435.4512	1459.3353	1503.0056	1828.998	2900.4613	3035.0522	3040.6924	3062.7215	3094.9021	3128.8063	3176.299	3214.8963	3818.3933
OC1C2CN2C1CC=O	O[C@H]1[C@H]2CN2[C@H]1CC=O	
InChI=1S/C6H9NO2/c8-2-1-4-6(9)5-3-7(4)5/h2,4-6,9H,1,3H2	InChI=1S/C6H9NO2/c8-2-1-4-6(9)5-3-7(4)5/h2,4-6,9H,1,3H2/t4-,5+,6+,7?/m0/s1
