17
gdb 77744	1.99722	1.54045	1.43073	3.7022	70.03	-0.2365	-0.0092	0.2273	1046.3652	0.133215	-458.943452	-458.934378	-458.933433	-458.976795	33.882	
C	-0.2256510041	 1.6500786132	-0.0786580492	-0.431928
C	 0.0187435523	 0.1478957922	-0.007766605	-0.155237
C	 1.1198231319	-0.5396290782	-0.8498636189	 0.434725
O	 1.3153200466	-0.5873165686	-2.0332696686	-0.329739
C	 1.7349627765	-1.2466976146	 0.315757512	-0.355819
C	 2.0677620005	-0.2310954355	 1.401524093	 0.021799
O	 2.6241866717	 1.0249940091	 1.140275799	-0.413276
C	 0.6336101854	-0.5062287451	 1.2337595705	 0.37746
O	-0.1987120613	-0.9902105215	 2.2084801487	-0.446314
H	 0.6821588352	 2.2064296144	 0.1586575738	 0.143577
H	-0.552274274	 1.9236641289	-1.0867426343	 0.129899
H	-1.0119097291	 1.9489727216	 0.6218590192	 0.121027
H	-0.9057254013	-0.3995038507	-0.2377932751	 0.115035
H	 2.17719076	-2.2364668953	 0.3181077697	 0.110825
H	 2.4966146555	-0.7257465163	 2.280555898	 0.089949
H	 3.4695898933	 0.8920733788	 0.6966567209	 0.293729
H	 0.2962675309	-1.1057797725	 3.0266719561	 0.294288
97.102	174.661	185.1174	198.2283	240.7102	255.2456	289.1349	340.3238	346.4993	429.5913	495.4911	582.4947	640.5075	676.2709	694.5014	746.3822	814.4789	895.2812	936.4144	983.5628	1049.0617	1081.16	1102.6109	1116.6199	1145.8882	1183.8302	1206.8016	1229.7877	1302.8022	1327.5321	1354.5552	1401.8677	1418.4734	1490.7858	1496.5946	1509.0693	1875.0846	3026.2565	3040.5422	3044.6821	3106.8066	3146.7132	3184.9421	3798.7315	3811.3487
CC1C(=O)C2C(O)C12O	C[C@H]1C(=O)[C@H]2[C@@H](O)[C@@]12O	
InChI=1S/C6H8O3/c1-2-4(7)3-5(8)6(2,3)9/h2-3,5,8-9H,1H3	InChI=1S/C6H8O3/c1-2-4(7)3-5(8)6(2,3)9/h2-3,5,8-9H,1H3/t2-,3-,5+,6+/m0/s1
