23
gdb 81776	2.06985	1.66209	1.27585	1.4514	84.85	-0.2293	0.069	0.2983	1147.1094	0.203798	-388.270106	-388.260293	-388.259349	-388.30349	38.863	
C	-0.4120567676	 1.5341244151	 0.3799072847	-0.409875
C	-0.1138711635	 0.0475206957	 0.2098893578	-0.015583
C	 0.2638236105	-0.4711921706	-1.1850169079	-0.162318
C	 1.6065065135	 0.0871693437	-1.6155746392	-0.333245
C	 1.5805058155	-1.0320835831	-0.6351164672	 0.393584
O	 2.276811203	-2.1914117088	-0.9335956457	-0.463027
C	 1.2312217983	-0.5671013416	 0.795345331	 0.242453
C	 2.2273306987	 0.3711802262	 1.4765345681	-0.452346
C	 0.9314591409	-1.7654498372	 1.7010427007	-0.464846
H	 0.3747006402	 2.1689070241	-0.0380073626	 0.114094
H	-1.3469338834	 1.7947680753	-0.1283953063	 0.113553
H	-0.52611731	 1.7991891898	 1.4368219353	 0.111335
H	-0.9606183818	-0.5223323015	 0.6074514279	 0.064934
H	-0.4252863539	-0.8895836955	-1.9094899998	 0.081859
H	 1.9158001523	-0.2231821596	-2.6086325907	 0.116944
H	 1.9227590634	 1.091866306	-1.3475317215	 0.102038
H	 1.8234583104	-2.9315507734	-0.5150693745	 0.283464
H	 2.4761222015	 1.2355233918	 0.8556408301	 0.113104
H	 1.8325683724	 0.7476981187	 2.4272895375	 0.109183
H	 3.1619581691	-0.1582991323	 1.6929965888	 0.117543
H	 1.8457813319	-2.3199931149	 1.9421633561	 0.116333
H	 0.4848511248	-1.4367983556	 2.6456879909	 0.116468
H	 0.2248963137	-2.4603570622	 1.2305477065	 0.104351
133.8131	187.9917	209.4558	214.837	233.0883	246.8577	271.0863	310.0421	342.4446	361.6368	411.0738	467.0286	485.093	550.7852	610.5857	653.422	740.249	818.0581	861.2318	911.6122	949.181	953.6043	980.8351	987.4593	1006.263	1012.9008	1053.5197	1075.8073	1102.0322	1119.1888	1167.8506	1197.7432	1214.6284	1237.7397	1280.486	1295.8455	1325.2012	1378.7041	1393.9075	1406.5234	1419.1893	1423.2287	1483.2573	1484.7499	1493.9534	1497.2572	1503.0669	1509.2774	1514.7386	3015.1613	3027.6698	3030.6159	3038.5134	3079.7913	3086.5014	3091.1757	3093.4547	3103.7288	3110.4328	3116.5322	3175.4786	3202.4876	3796.9823
CC1C2CC2(O)C1(C)C	C[C@H]1[C@H]2C[C@@]2(O)C1(C)C	
InChI=1S/C8H14O/c1-5-6-4-8(6,9)7(5,2)3/h5-6,9H,4H2,1-3H3	InChI=1S/C8H14O/c1-5-6-4-8(6,9)7(5,2)3/h5-6,9H,4H2,1-3H3/t5-,6+,8-/m0/s1
