19
gdb 109098	3.32198	1.12132	0.87441	1.4362	83.3	-0.2079	-0.0194	0.1886	1319.789	0.159625	-423.016887	-423.008141	-423.007197	-423.050591	32.504	
O	 0.1429307677	 1.3964946822	-0.1295192624	-0.41058
C	 0.0086625973	-0.0080111017	-0.0717036885	-0.162111
C	-1.4366793609	-0.4070168972	 0.0326033954	 0.249888
C	-2.439154961	 0.4792535005	-0.0404782232	-0.146273
C	-3.8635784737	 0.1871006957	 0.0680457757	-0.072204
C	-4.5028310526	-0.9896827038	-0.0189252369	-0.090729
C	-3.9550228511	-2.3475876179	-0.3513977504	-0.13411
O	-2.6035363258	-2.413339933	-0.7392953687	-0.233335
C	-1.6848376631	-1.8857937967	 0.2087696689	-0.196937
H	 1.071138933	 1.6039796134	-0.2665021737	 0.291182
H	 0.440517102	-0.4909891938	-0.9677700456	 0.103136
H	 0.5593370039	-0.426621525	 0.7916623543	 0.094579
H	-2.1744016885	 1.5252257503	-0.1551461907	 0.107557
H	-4.4849434931	 1.0591812456	 0.2630547989	 0.086156
H	-5.5806729235	-0.9947744404	 0.1388146795	 0.089339
H	-4.1571255393	-3.0329300138	 0.4940393235	 0.094135
H	-4.5125576956	-2.7541301166	-1.2063441279	 0.121136
H	-0.7518436697	-2.4455089541	 0.0710587946	 0.102402
H	-2.0370714859	-2.0893699538	 1.2328858472	 0.106768
65.1955	118.921	179.4995	211.2567	217.0049	291.0062	326.9654	374.3638	436.1282	488.8678	537.76	654.8035	725.3926	790.578	842.9523	899.7049	914.0682	957.4842	985.5587	1008.8365	1032.5036	1052.9732	1065.9499	1093.8333	1149.6505	1191.2296	1230.724	1249.2394	1258.4287	1278.623	1329.3829	1370.4159	1395.3528	1419.0909	1440.2007	1459.7936	1475.8469	1484.9641	1505.379	1691.8751	1723.0057	2918.085	2924.507	2937.7097	2975.0188	3029.2292	3050.3971	3126.7079	3149.2016	3188.7768	3842.9143
OCC1=CC=CCOC1	OCC1=CC=CCOC1	
InChI=1S/C7H10O2/c8-5-7-3-1-2-4-9-6-7/h1-3,8H,4-6H2	InChI=1S/C7H10O2/c8-5-7-3-1-2-4-9-6-7/h1-3,8H,4-6H2
