16
gdb 43027	2.78565	1.92138	1.40684	3.1811	69.37	-0.2293	-0.0323	0.197	913.1664	0.126308	-437.811015	-437.804503	-437.803559	-437.841803	26.394	
O	-0.0686659017	 0.0077735133	-0.1189738786	-0.308724
C	-0.0714561395	 1.2015957888	-0.0221908501	 0.3612
C	-1.2819778961	 2.1778735474	 0.0348098625	-0.108169
C	-0.8899227391	 3.3607082702	 1.0033214354	-0.327989
C	 0.1954252585	 3.4965997021	-0.0788977425	 0.292786
C	 1.4416942068	 4.1430981341	-0.6839121659	-0.212323
O	 1.9472761217	 2.7957527483	-0.9768772095	-0.30653
C	 1.0708612974	 2.2523667957	 0.0586104747	 0.004366
N	-0.8461642068	 3.0889482244	-1.070564225	-0.317059
H	-2.2791094869	 1.7426718089	 0.005451634	 0.101913
H	-1.6627784343	 4.1303801477	 0.9868409935	 0.129168
H	-0.5666815446	 3.1255629942	 2.0181052537	 0.116411
H	 1.3034333306	 4.7395575094	-1.5898698422	 0.126172
H	 2.093576441	 4.6642991429	 0.0270511468	 0.11646
H	 1.6391834888	 2.1153042446	 0.9888777273	 0.098241
H	-0.463554296	 2.602094608	-1.8854722041	 0.234078
136.7417	260.385	294.0723	325.7312	459.7441	513.6069	568.4724	619.4487	641.8815	766.8672	814.4755	841.0663	864.86	888.4259	915.475	940.3285	973.3899	993.4607	1020.0629	1066.4673	1092.7664	1135.0592	1138.8436	1162.2214	1188.9293	1220.7883	1224.4625	1266.1604	1281.5797	1310.7468	1334.0912	1368.3316	1486.7514	1504.4846	1866.772	3013.2385	3033.322	3083.6161	3103.6438	3147.1342	3154.848	3419.9842
O=C1C2CC3(COC13)N2	O=C1[C@H]2C[C@]3(CO[C@H]13)N2	
InChI=1S/C6H7NO2/c8-4-3-1-6(7-3)2-9-5(4)6/h3,5,7H,1-2H2	InChI=1S/C6H7NO2/c8-4-3-1-6(7-3)2-9-5(4)6/h3,5,7H,1-2H2/t3-,5-,6-/m1/s1
