21
gdb 106835	2.33454	1.32142	1.11001	2.3194	79.37	-0.2449	0.0829	0.3278	1227.6968	0.181344	-424.182765	-424.173187	-424.172243	-424.217469	35.505	
C	 0.2727678555	 0.9675169702	 0.1108405573	-0.258044
O	-0.0392697866	-0.3934359284	 0.362832015	-0.292253
C	-1.3710549373	-0.7050455973	 0.1703965084	 0.408269
C	-1.9466747182	-0.9254214984	-1.2038886841	-0.406379
C	-1.9194613468	-2.0719322812	-0.2112066215	 0.240043
C	-1.1639869051	-3.3467625482	-0.4444598546	-0.174818
O	-0.6533512535	-3.8958335368	 0.7644824283	-0.420607
C	-3.0632218318	-1.894393558	 0.7998003262	-0.27572
C	-2.4782320663	-0.4991658915	 1.2108518883	-0.295099
H	 1.3458838223	 1.0861518727	 0.2763724937	 0.127334
H	 0.0320116574	 1.2473049411	-0.923976809	 0.113488
H	-0.2688472968	 1.6398250873	 0.7906067617	 0.114727
H	-2.8905642872	-0.4783638348	-1.50958646	 0.10174
H	-1.2007343747	-0.9938929494	-1.9903653735	 0.114157
H	-1.8216826599	-4.1173271597	-0.8637221782	 0.110409
H	-0.3593367035	-3.1719204069	-1.1751428303	 0.089685
H	-0.0549768987	-3.2375591063	 1.1351754335	 0.289045
H	-4.0740361746	-1.89277613	 0.3798281995	 0.093593
H	-3.010210286	-2.6223472671	 1.6110210229	 0.119323
H	-2.0875691997	-0.5042516473	 2.2312190049	 0.108025
H	-3.1248250783	 0.3743682301	 1.0796593017	 0.093081
61.3764	83.1473	144.613	172.1904	179.8635	251.8335	284.1276	370.6295	392.7426	437.4304	459.8696	545.998	598.1246	714.4706	764.8773	798.1509	873.078	920.7171	930.2052	969.4236	979.2185	1005.9979	1055.4711	1063.7854	1085.2385	1132.4857	1148.8879	1179.4162	1206.4384	1212.8042	1220.3846	1229.8638	1242.963	1272.1066	1335.936	1372.2215	1405.9757	1426.2667	1471.888	1477.708	1483.7897	1487.764	1495.6685	1505.9035	1517.888	2985.6844	2995.0373	3044.162	3050.1797	3053.4278	3057.6548	3098.1439	3103.0994	3121.5234	3125.3243	3194.1535	3803.5063
COC12CC1(CO)CC2	CO[C@@]12C[C@]1(CO)CC2	
InChI=1S/C7H12O2/c1-9-7-3-2-6(7,4-7)5-8/h8H,2-5H2,1H3	InChI=1S/C7H12O2/c1-9-7-3-2-6(7,4-7)5-8/h8H,2-5H2,1H3/t6-,7-/m0/s1
