21
gdb 102660	2.56165	0.91605	0.75723	3.5648	75.14	-0.2516	0.067	0.3186	1551.9749	0.180223	-461.32086	-461.310535	-461.30959	-461.357454	36.341	
C	 0.1191963243	 1.4355261215	-0.3090281754	-0.243497
O	 0.0697324172	 0.0414579903	-0.0807542752	-0.258337
C	 0.6307226234	-0.7597698247	-1.1275311444	 0.081549
C	 2.1466344507	-0.8643264841	-0.9124092221	-0.066118
O	 2.4452894179	-1.3552582803	 0.3786957652	-0.418809
C	-0.0609627446	-2.1231193162	-1.0692034547	-0.233922
C	-1.5577733098	-2.0292230218	-1.2448566728	 0.095073
C	-2.2010253352	-2.1940104503	-2.5559118584	-0.179715
O	-2.2355538356	-3.2410136858	-1.5854081661	-0.238356
H	 1.1472174707	 1.8146588234	-0.3944911838	 0.114121
H	-0.4279157222	 1.7107037428	-1.2226129731	 0.113417
H	-0.3587017182	 1.9171920038	 0.5475076268	 0.133055
H	 0.4319696248	-0.283753439	-2.1012053073	 0.066998
H	 2.5836425699	-1.5593628774	-1.6373114912	 0.109066
H	 2.6116081818	 0.1204182535	-1.0826876218	 0.084731
H	 1.8719615527	-0.8641019133	 0.9810813451	 0.287305
H	 0.3528338025	-2.7703916321	-1.8501288997	 0.105969
H	 0.1732039985	-2.5911563575	-0.1073904148	 0.12429
H	-2.074333373	-1.4252505908	-0.5004242619	 0.103037
H	-3.1563933183	-1.7123118893	-2.7606842981	 0.112814
H	-1.5872687575	-2.3932224027	-3.4344850964	 0.107331
48.8415	72.4986	80.5107	112.2984	148.1398	211.2034	239.2526	308.6683	346.0447	357.6769	415.381	475.92	536.9251	662.4622	799.6331	850.4983	864.6056	889.8378	921.2359	962.8749	1017.3892	1080.4453	1091.147	1111.4726	1135.2842	1144.5452	1154.062	1183.8298	1184.2811	1205.9055	1227.4001	1255.8756	1275.3377	1291.376	1354.49	1372.1995	1403.5403	1429.3184	1441.465	1477.0899	1481.3542	1486.6847	1508.0512	1512.0482	1529.8965	2967.2558	2979.895	2992.247	3040.723	3048.14	3071.9268	3076.6654	3093.1881	3116.2484	3127.7338	3162.3216	3773.2515
COC(CO)CC1CO1	CO[C@@H](CO)C[C@H]1CO1	
InChI=1S/C6H12O3/c1-8-5(3-7)2-6-4-9-6/h5-7H,2-4H2,1H3	InChI=1S/C6H12O3/c1-8-5(3-7)2-6-4-9-6/h5-7H,2-4H2,1H3/t5-,6+/m1/s1
