21
gdb 60942	2.48079	1.28649	1.03512	2.7257	82.74	-0.2404	-0.0169	0.2235	1248.2511	0.181764	-387.070656	-387.061509	-387.060565	-387.105478	33.949	
C	 0.0133171683	 1.4414573532	-0.1584403129	-0.416836
C	 0.0814728637	-0.0764100101	 0.0710011446	-0.0905
C	 0.7286564991	-0.3923140015	 1.4056389287	 0.174984
O	 1.6388575925	-1.1641576427	 1.5682059629	-0.255732
C	-1.3155462787	-0.6938894123	 0.0617194027	-0.004492
C	-2.0178148127	-1.2216265027	-1.1652715596	-0.081126
C	-1.0511519659	-1.9461727426	-2.1115640299	-0.231563
C	-0.6374111587	-2.8983979102	-0.9419265986	-0.235205
C	-1.6216196029	-2.1648769853	-0.0191928541	-0.077324
H	 1.0120773088	 1.8855764043	-0.2095630428	 0.124333
H	-0.5075949999	 1.6599035925	-1.0951170895	 0.129616
H	-0.5357428116	 1.9379689145	 0.6501487757	 0.119044
H	 0.7076271857	-0.5408592071	-0.6947423706	 0.097759
H	 0.2721350021	 0.1436539938	 2.2732983271	 0.06611
H	-2.0046266168	-0.1732929264	 0.7263136334	 0.085376
H	-3.0016503341	-0.8599343946	-1.44153101	 0.084462
H	-1.5756906267	-2.481953148	-2.9054068606	 0.105327
H	-0.2648931117	-1.339654863	-2.5729863182	 0.098181
H	-0.9338449195	-3.9314015232	-1.1339813322	 0.103784
H	 0.4102698091	-2.8903938833	-0.6283182974	 0.118618
H	-2.2562723103	-2.6442100154	 0.7170550513	 0.085184
38.4796	64.1124	161.5512	184.7279	213.015	278.3079	287.02	348.745	445.9722	505.1774	563.8983	734.3855	764.1498	792.8425	799.4395	883.3205	902.4754	946.2707	951.8183	957.4515	973.8566	1013.8322	1022.8101	1076.2649	1076.8117	1104.4937	1123.81	1145.8883	1162.6353	1210.5683	1225.5767	1245.4013	1263.8812	1282.4408	1305.7134	1324.4504	1354.4482	1403.6221	1422.3948	1443.5775	1487.4367	1496.8756	1498.5318	1508.9584	1829.6891	2836.0942	3031.258	3047.0637	3063.8232	3082.0865	3099.9572	3101.1147	3113.6049	3114.0019	3119.8241	3168.3381	3180.8365
CC(C=O)C1C2CCC12	C[C@@H](C=O)[C@H]1[C@H]2CC[C@@H]12	
InChI=1S/C8H12O/c1-5(4-9)8-6-2-3-7(6)8/h4-8H,2-3H2,1H3	InChI=1S/C8H12O/c1-5(4-9)8-6-2-3-7(6)8/h4-8H,2-3H2,1H3/t5-,6-,7+,8-/m0/s1
