21
gdb 57654	3.25664	0.95973	0.91322	2.3064	79.02	-0.2496	-0.0278	0.2218	1366.5934	0.179052	-424.214913	-424.204667	-424.203723	-424.250824	36.969	
C	-0.044207628	 1.7369118858	-0.0035117966	-0.41784
C	 0.0982375146	 0.20559596	 0.0473215274	 0.212423
C	 0.8831264158	-0.2231753363	 1.298641286	-0.442509
C	-1.3107091453	-0.4722147601	 0.0232270481	-0.280601
C	-2.1516349019	-0.1631846755	 1.2411248983	 0.13463
O	-2.9542677993	 0.7350227091	 1.3003745311	-0.242288
C	 0.7912411057	-0.2504451786	-1.2348435418	 0.087349
C	 2.2205078249	-0.5608012847	-1.3663318308	-0.193241
O	 1.2417421887	-1.6039030062	-1.3035616208	-0.248034
H	 0.9411109819	 2.2142106288	-0.004336739	 0.114935
H	-0.5765999278	 2.0568652829	-0.9054823371	 0.119021
H	-0.6051689379	 2.111607052	 0.8564629561	 0.136416
H	 0.3331186487	 0.0217759586	 2.2115122533	 0.119934
H	 1.0764257848	-1.29950994	 1.2885431533	 0.135084
H	 1.8427343882	 0.2989177916	 1.3566928415	 0.117832
H	-1.8592357494	-0.1253043442	-0.8586933054	 0.117261
H	-1.1690144021	-1.5566554069	-0.050190269	 0.123743
H	-1.9814185079	-0.825228985	 2.1203509406	 0.080715
H	 0.2765112388	 0.0792788171	-2.1410838821	 0.090805
H	 2.7069148622	-0.4365762834	-2.3329376753	 0.117182
H	 2.8814782852	-0.4936133651	-0.5060199078	 0.117181
40.223	70.28	88.6809	192.9039	212.0731	239.9166	253.3337	300.8056	316.6942	359.4675	383.366	477.6175	528.0845	543.2413	699.912	818.5589	864.5967	898.683	925.2536	940.4408	954.7394	989.8826	1010.9231	1054.1718	1063.419	1104.8572	1158.085	1167.1492	1180.6149	1207.8301	1239.7929	1278.0054	1311.366	1331.9652	1397.2892	1411.5845	1430.4166	1440.4146	1473.8636	1484.6673	1492.7044	1500.5863	1516.8516	1533.1846	1822.7501	2870.2869	3034.5843	3036.5351	3043.5974	3074.0916	3094.3811	3095.2389	3102.1046	3108.1746	3120.0027	3121.1382	3183.2739
CC(C)(CC=O)C1CO1	CC(C)(CC=O)[C@H]1CO1	
InChI=1S/C7H12O2/c1-7(2,3-4-8)6-5-9-6/h4,6H,3,5H2,1-2H3	InChI=1S/C7H12O2/c1-7(2,3-4-8)6-5-9-6/h4,6H,3,5H2,1-2H3/t6-/m1/s1
