18
gdb 60903	3.26958	1.12612	1.02836	2.7379	73.25	-0.2411	0.019	0.2601	1208.2595	0.146581	-439.055115	-439.046377	-439.045433	-439.089166	31.686	
C	-0.5578693653	 1.3514374212	 0.0187419822	-0.361782
N	-0.0715288626	-0.0229484228	 0.0268271613	-0.142056
C	 0.3214096623	-0.6002505629	 1.2078932944	 0.13659
O	 0.2865851154	-0.0656826297	 2.2941694148	-0.335787
C	 0.0675578375	-0.7030936332	-1.2048009622	 0.281653
C	-1.1192468395	-1.0923414737	-2.0705810443	-0.328186
C	-0.1622620965	-2.1466708037	-1.6076460889	 0.041091
O	 0.9962586916	-2.1766749573	-2.4377584397	-0.277768
C	 1.3454570514	-0.8210393367	-2.0460441159	-0.119968
H	 0.1380106882	 2.0151018322	-0.5071986903	 0.12831
H	-1.5324082834	 1.4062623935	-0.476565332	 0.129366
H	-0.6488194813	 1.6768968393	 1.0548454074	 0.169341
H	 0.6697733462	-1.638060676	 1.0520603356	 0.080872
H	-2.0686010042	-1.068988219	-1.5442972117	 0.127074
H	-1.1544024104	-0.8241985849	-3.1226701254	 0.12105
H	-0.4228278	-3.0415624957	-1.0555136528	 0.12228
H	 1.4636837553	-0.1532184049	-2.9066424242	 0.110753
H	 2.2561569853	-0.8192710957	-1.4363494385	 0.117167
55.834	106.6078	131.1043	150.9039	290.263	314.7393	322.219	396.6195	414.8595	464.1281	522.4476	746.1885	790.5891	871.2238	881.7424	925.4315	981.942	989.7131	1000.7787	1034.5893	1034.8428	1076.4412	1082.3385	1101.8907	1153.6556	1157.6159	1172.7554	1221.4279	1289.4213	1326.6411	1364.1253	1404.8436	1435.329	1445.7458	1483.4975	1497.5726	1511.8908	1513.6068	1798.1621	2964.0514	3026.991	3031.1089	3083.0046	3088.3442	3118.2247	3160.35	3190.7016	3215.2901
CN(C=O)C12CC1OC2	CN(C=O)[C@]12C[C@H]1OC2	
InChI=1S/C6H9NO2/c1-7(4-8)6-2-5(6)9-3-6/h4-5H,2-3H2,1H3	InChI=1S/C6H9NO2/c1-7(4-8)6-2-5(6)9-3-6/h4-5H,2-3H2,1H3/t5-,6+/m1/s1
