22
gdb 64412	2.34792	1.66072	1.30859	1.9591	81.21	-0.2409	0.0681	0.309	1094.4005	0.195472	-404.334715	-404.326042	-404.325098	-404.367308	34.595	
C	-0.0096985697	 1.5327630237	 0.0213137551	-0.427001
C	-0.0039205527	-0.0023701878	 0.0071944924	 0.261758
C	-1.4389276075	-0.5553987205	 0.0202414113	-0.419403
C	 0.7291661775	-0.5032630918	-1.2563774816	-0.11247
O	 0.8987374214	-1.910845553	-1.2392720318	-0.255473
C	 1.8499849444	-2.3349171652	-0.2769577649	-0.078902
C	 1.6501277992	-1.7011428512	 1.0926495113	-0.062316
N	 2.1931279658	-0.3369392079	 1.257356331	-0.347307
C	 0.736539568	-0.5353703517	 1.228725806	-0.035814
H	 1.0112346656	 1.9232979578	 0.0665421493	 0.128585
H	-0.4929434465	 1.9327430854	-0.8773919752	 0.10879
H	-0.558996919	 1.9156195175	 0.8888041957	 0.106185
H	-2.0186666526	-0.1483998923	-0.8154031499	 0.108906
H	-1.4328713361	-1.6447520529	-0.0707857182	 0.12717
H	-1.9596984623	-0.2874412456	 0.946318549	 0.103345
H	 0.1330611218	-0.2777499648	-2.1465676621	 0.098639
H	 1.701675743	 0.001527839	-1.3514969373	 0.102853
H	 1.7362285257	-3.4211637952	-0.2074000855	 0.104281
H	 2.8711079346	-2.1168876528	-0.6286020869	 0.097734
H	 1.7386880254	-2.3782379129	 1.938996485	 0.086918
H	 2.5130201004	-0.1947576475	 2.2113286779	 0.229666
H	 0.1975252436	-0.4297228004	 2.1698060593	 0.073856
111.8497	197.6273	222.5478	244.9951	257.8961	310.1141	325.3123	381.4058	399.6698	466.1717	497.4671	530.1522	684.6007	775.6431	802.8052	845.9512	898.4553	922.0405	940.8665	948.8144	957.2585	989.4429	1017.4825	1026.8566	1053.4312	1110.6241	1131.9172	1161.559	1205.6755	1209.4314	1229.1787	1263.7714	1275.7212	1304.9937	1333.5452	1370.5578	1393.0196	1398.2187	1412.577	1425.6572	1457.006	1481.0647	1487.8825	1490.0122	1496.301	1504.4215	1513.5585	2977.3547	2999.7917	3024.5621	3030.7833	3075.2098	3077.286	3086.785	3092.6375	3104.4644	3109.6535	3118.0501	3133.5263	3506.775
CC1(C)COCC2NC12	CC1(C)COC[C@H]2N[C@@H]12	
InChI=1S/C7H13NO/c1-7(2)4-9-3-5-6(7)8-5/h5-6,8H,3-4H2,1-2H3	InChI=1S/C7H13NO/c1-7(2)4-9-3-5-6(7)8-5/h5-6,8H,3-4H2,1-2H3/t5-,6-/m1/s1
