17
gdb 72993	2.70697	1.42972	1.15529	3.793	70.09	-0.2428	-0.0213	0.2215	1083.1248	0.133204	-458.918987	-458.910226	-458.909282	-458.952144	32.653	
C	-0.0405773025	 1.5538292046	 0.1159998795	-0.488498
C	-0.015642316	 0.0436792445	 0.1667651835	 0.145108
C	-1.224666555	-0.6518179003	-0.3614029584	 0.132862
O	-2.1901429143	-0.0786504939	-0.8049514143	-0.274119
C	 1.26013909	-0.7779393766	-0.1513585397	-0.032807
O	 2.4217271167	-0.0568940821	 0.235040865	-0.275562
C	 2.0029351875	-0.0790190829	 1.6284597796	-0.15732
C	 0.6928655056	-0.7675084407	 1.2433498823	 0.25261
O	-0.0034388457	-1.6640475337	 2.0230397861	-0.441192
H	 0.9722302631	 1.9609407885	 0.1460635	 0.133938
H	-0.521102768	 1.8796769833	-0.8092341694	 0.142546
H	-0.6160405644	 1.9688387032	 0.9490309038	 0.128613
H	-1.1778365239	-1.7615788155	-0.3407473247	 0.074861
H	 1.340706106	-1.4979232284	-0.9568354734	 0.126732
H	 2.6653738141	-0.7292992212	 2.2128313237	 0.112461
H	 1.9603423238	 0.9172143288	 2.0782489409	 0.125092
H	 0.5805908732	-2.3968374475	 2.2518585655	 0.294675
100.1457	141.4389	171.6114	224.5135	287.8751	288.9029	308.4543	340.438	383.3692	432.2664	517.8284	577.8012	666.9999	728.1239	767.2056	896.1307	927.3678	970.6208	1000.0178	1007.4803	1038.4853	1053.5078	1090.5844	1108.745	1144.9063	1204.0032	1256.4319	1270.2892	1311.3671	1331.3312	1404.6666	1440.9596	1462.5924	1488.7961	1496.8464	1509.9382	1811.6677	2899.9144	3029.3316	3051.1893	3094.0065	3118.7739	3137.4239	3189.9506	3785.6106
CC1(C=O)C2OCC12O	C[C@@]1(C=O)[C@H]2OC[C@@]12O	
InChI=1S/C6H8O3/c1-5(2-7)4-6(5,8)3-9-4/h2,4,8H,3H2,1H3	InChI=1S/C6H8O3/c1-5(2-7)4-6(5,8)3-9-4/h2,4,8H,3H2,1H3/t4-,5-,6+/m1/s1
