19
gdb 31774	2.9551	1.2985	0.96459	2.9494	79.66	-0.2102	0.0202	0.2305	1240.9284	0.159957	-419.249827	-419.240455	-419.239511	-419.284	33.859	
C	 0.1458841742	 1.4086644425	 0.0707898159	-0.360874
N	 0.0592797367	-0.0409000095	 0.0344760394	-0.073877
C	 0.0340334592	-0.8367787762	-1.0970618152	 0.266538
C	 0.1189759612	-0.2948824682	-2.4830462821	-0.506657
C	-0.0695789641	-2.1217288377	-0.624716561	-0.176827
N	-0.1066757972	-2.1417440523	 0.7466636292	-0.306885
C	-0.0354847401	-0.8793479786	 1.1178980564	 0.278579
C	-0.0436561628	-0.4077031891	 2.5363643705	-0.18814
O	 1.1404125292	 0.303798042	 2.9069209354	-0.412859
H	 0.8026780613	 1.762217988	-0.7276192672	 0.138645
H	-0.8378309073	 1.8741167907	-0.0597510284	 0.135232
H	 0.5693614716	 1.7105422866	 1.0288854	 0.174403
H	 1.052047163	 0.2546542155	-2.6614640723	 0.129964
H	 0.0825942057	-1.1199741268	-3.1981165906	 0.140591
H	-0.7083146907	 0.3857099734	-2.7188848288	 0.130064
H	-0.1120369679	-3.0312366854	-1.206000642	 0.101161
H	-0.8629282598	 0.2956479498	 2.7234716095	 0.115483
H	-0.207262164	-1.2901451955	 3.1661102233	 0.128094
H	 1.8853412119	-0.2861674993	 2.7472833579	 0.287366
86.8507	119.1206	141.6911	159.7642	203.1525	242.5483	276.633	292.4011	385.3974	417.6371	477.7292	606.0438	655.8414	709.8425	718.5923	788.3975	831.519	957.8672	982.9265	1011.0796	1038.325	1063.1426	1153.0966	1163.2053	1184.957	1204.2519	1244.9867	1302.7723	1355.6977	1393.7174	1413.3518	1416.9575	1442.0936	1477.9072	1479.0988	1492.434	1502.2887	1509.3105	1514.8587	1536.9467	1605.4452	3016.8314	3032.8741	3035.2002	3061.5892	3076.357	3106.1781	3122.1654	3156.6481	3239.6421	3805.4893
CN1C(C)=CN=C1CO	Cn1c(C)cnc1CO	
InChI=1S/C6H10N2O/c1-5-3-7-6(4-9)8(5)2/h3,9H,4H2,1-2H3	InChI=1S/C6H10N2O/c1-5-3-7-6(4-9)8(5)2/h3,9H,4H2,1-2H3
