16
gdb 44116	2.51221	1.65423	1.33435	2.856	75.	-0.245	0.0185	0.2635	997.7565	0.124477	-400.717668	-400.710015	-400.709071	-400.749994	29.69	
N	-0.0066499203	 0.9107324578	 0.7561851712	-0.532105
C	-0.0280463623	-0.1520413745	 0.0826406978	 0.41374
C	-1.2719997912	-0.9447047025	-0.2940419668	-0.327857
C	-0.7374333987	-2.1475931557	-1.0452264081	-0.103344
C	 0.7440319381	-1.9509707731	-1.1041223744	 0.07716
O	 1.0938704059	-0.7704629967	-0.4297197352	-0.229265
C	 0.1897530666	-3.1000166974	-0.2732679066	-0.269526
C	 0.2460546265	-3.0950530669	 1.1561525853	 0.333679
C	 0.2782332768	-3.085179624	 2.358403185	-0.432991
H	 0.9510190916	 1.242054146	 0.8805591418	 0.226704
H	-1.8318329988	-1.1999444737	 0.6090863105	 0.152877
H	-1.9210563186	-0.3349012623	-0.9284409894	 0.138888
H	-1.2964571442	-2.5548335826	-1.8778710558	 0.108478
H	 1.3706426522	-2.1460937573	-1.9653350936	 0.119011
H	 0.3073826714	-4.0749828056	-0.7390861557	 0.121766
H	 0.3193630552	-3.0737486715	 3.4194334541	 0.202786
77.8963	132.8776	154.5423	316.3126	356.8311	441.368	513.3726	564.9652	595.1415	623.2934	664.8971	673.7147	741.1747	765.6843	788.4847	834.8658	888.7565	934.3858	951.1129	1007.3674	1027.8776	1040.8385	1060.8993	1101.6837	1136.7466	1188.3626	1199.9753	1257.7257	1291.1181	1344.5201	1365.8258	1409.099	1464.4657	1786.6469	2237.9217	3070.6786	3112.2267	3142.4988	3189.3367	3198.814	3481.175	3503.5841
N=C1CC2C(O1)C2C#C	[NH][C]1C[C@H]2[C@@H](O1)[C@H]2C#C	
InChI=1S/C7H7NO/c1-2-4-5-3-6(8)9-7(4)5/h1,4-5,7-8H,3H2	InChI=1S/C7H7NO/c1-2-4-5-3-6(8)9-7(4)5/h1,4-5,7-8H,3H2/t4-,5+,7-/m0/s1
