18
gdb 47529	2.62003	1.79743	1.31435	4.7521	71.17	-0.237	0.0078	0.2448	989.5234	0.150909	-439.091816	-439.084621	-439.083677	-439.123428	28.604	
O	 0.0158037835	 0.017569724	-0.3809088519	-0.323885
C	 0.0057375473	 1.1495668987	 0.0234387103	 0.425372
O	-1.1797743751	 1.723823396	 0.3447404024	-0.240175
C	-1.3037287214	 2.892065574	 1.1806865113	-0.052596
C	-0.676820988	 4.1784303529	 0.6414121053	-0.217197
C	 0.8241127111	 4.033132727	 0.3513402465	 0.006343
C	 1.1289402031	 3.2184502771	-0.9300121978	-0.237834
C	 1.2688419865	 2.0053476377	 0.0296784245	-0.124967
N	 1.3894093016	 2.9290011909	 1.2060562602	-0.339501
H	-2.3834012878	 3.0226701967	 1.2832566909	 0.115995
H	-0.8807365736	 2.6643026999	 2.1609591376	 0.137028
H	-1.1972919382	 4.5189641452	-0.2609347521	 0.111462
H	-0.8393486504	 4.9415397215	 1.4126038637	 0.109038
H	 1.3348638759	 4.994340257	 0.4493250182	 0.077066
H	 0.3666528521	 3.1758614535	-1.7124930281	 0.116148
H	 2.0911232644	 3.4852450169	-1.3733757888	 0.108269
H	 2.1076416739	 1.3267677859	-0.1232145525	 0.102777
H	 2.3762602052	 3.096287735	 1.3797121403	 0.226657
95.125	204.0842	260.7929	317.4192	360.8424	386.2664	445.1901	555.4132	637.5533	703.7915	739.3566	789.9563	818.5269	875.9159	882.0059	921.9577	939.4794	963.2765	997.6889	1057.0571	1062.3067	1083.0309	1107.678	1132.6297	1198.3021	1231.0578	1242.3865	1261.416	1271.7083	1310.9642	1331.7032	1359.6089	1382.9245	1406.7262	1429.0123	1472.2932	1490.031	1495.554	1833.0272	3031.0022	3058.5252	3070.0095	3073.5835	3079.7615	3114.0563	3122.4137	3126.152	3511.7298
O=C1OCCC2CC1N2	O=C1OCC[C@@H]2C[C@H]1N2	
InChI=1S/C6H9NO2/c8-6-5-3-4(7-5)1-2-9-6/h4-5,7H,1-3H2	InChI=1S/C6H9NO2/c8-6-5-3-4(7-5)1-2-9-6/h4-5,7H,1-3H2/t4-,5-/m1/s1
