15
gdb 49043	2.12788	1.83902	1.35558	4.6754	68.02	-0.2462	-0.0426	0.2036	982.6184	0.111765	-453.905215	-453.897254	-453.896309	-453.938407	28.891	
N	 0.110762725	 1.1193884633	-0.641614161	-0.541434
C	 0.0736346321	-0.0764309721	-0.2489193038	 0.357511
N	 0.9842890809	-1.08249317	 0.0904298849	-0.338279
C	-0.0300983789	-2.0380463332	 0.5312372119	-0.081897
C	-0.6160825248	-1.8145936654	 1.941627761	-0.099812
O	-1.5547913167	-0.8245680109	 1.452310533	-0.319694
C	-1.1120219285	-1.0036810469	 0.0917243707	 0.275338
C	-2.2302552457	-1.2195227431	-0.887846678	 0.078668
O	-2.0818658335	-1.7625201938	-1.9510559186	-0.244479
H	 1.0646898753	 1.479471403	-0.7030199248	 0.218173
H	 1.9077685779	-0.9559976445	 0.483007702	 0.244868
H	 0.0668552408	-3.049190673	 0.1396758722	 0.118571
H	-1.1432087792	-2.6819851525	 2.3555404732	 0.120132
H	 0.0726846279	-1.4063572132	 2.6890384683	 0.112252
H	-3.2139302226	-0.8420334476	-0.5343024508	 0.100084
48.8771	129.5601	170.3433	191.267	259.8343	372.6684	432.39	469.1018	534.2226	656.9634	689.3512	735.0721	826.8461	845.3932	853.9873	908.1369	998.4329	1014.3016	1035.9579	1060.0852	1089.9485	1116.7447	1131.8448	1173.7393	1251.7219	1286.7319	1332.3187	1351.1502	1357.392	1403.2343	1509.1034	1795.4399	1831.1473	2908.3816	3028.5848	3082.6314	3132.4976	3463.9038	3580.0693
N=C1NC2COC12C=O	[NH][C]1N[C@H]2CO[C@@]12C=O	
InChI=1S/C5H6N2O2/c6-4-5(2-8)3(7-4)1-9-5/h2-3H,1H2,(H2,6,7)	InChI=1S/C5H6N2O2/c6-4-5(2-8)3(7-4)1-9-5/h2-3H,1H2,(H2,6,7)/t3-,5+/m0/s1
