19
gdb 111075	3.74437	1.07369	1.06032	4.6395	75.19	-0.2589	0.0162	0.2751	1230.1628	0.160665	-423.046221	-423.038364	-423.03742	-423.078839	30.477	
C	-0.0549482194	 1.5630297792	-0.0298851054	-0.381971
C	-0.1934686065	 0.0376068672	-0.1124552456	-0.23233
C	 0.6308181751	-0.561780314	-1.2470532699	 0.034237
C	 2.1782152834	-0.6538203372	-1.1178468933	 0.087763
C	 2.0017524968	-1.9279058725	-0.2668493774	-0.251953
C	 0.8194949032	-2.1317060433	-1.277953354	-0.212707
C	 1.6303065792	-2.2285122321	-2.5617412139	 0.451919
O	 1.5704429559	-2.9505726463	-3.5096225615	-0.352034
O	 2.5470719398	-1.208261083	-2.419099589	-0.247477
H	 0.9761029094	 1.8613991163	 0.1870602524	 0.119873
H	-0.3454551277	 2.0386242542	-0.9726998149	 0.124022
H	-0.6919255439	 1.9713296846	 0.7600624784	 0.120788
H	 0.071629869	-0.4074055692	 0.8523794203	 0.102977
H	-1.2450714982	-0.2228749825	-0.2855277667	 0.110292
H	 0.3119851958	-0.1243575553	-2.1995483182	 0.092982
H	 2.842582036	 0.1738464148	-0.8794880444	 0.096518
H	 2.8210271132	-2.6494408764	-0.2848934511	 0.121991
H	 1.6724618102	-1.7457970019	 0.7549805275	 0.118663
H	 0.0129296986	-2.8484472427	-1.1474947735	 0.096446
80.1571	156.2765	162.3645	228.4827	324.8184	362.4532	473.2953	491.0762	519.8655	646.5519	743.1335	767.4004	802.1379	863.5673	870.6618	876.0405	924.7828	929.6239	964.4688	1013.8747	1016.8083	1067.7622	1072.8018	1109.7015	1119.0416	1132.7578	1161.3921	1213.5988	1237.9451	1256.57	1265.8784	1294.1377	1322.2358	1352.295	1408.2157	1417.064	1484.4366	1500.6424	1502.0216	1514.5338	1912.601	3032.6694	3036.4978	3048.0633	3072.3528	3087.7369	3105.179	3110.7029	3149.2145	3156.5599	3161.114
CCC1C2CC1C(=O)O2	CC[C@H]1[C@H]2C[C@@H]1C(=O)O2	
InChI=1S/C7H10O2/c1-2-4-5-3-6(4)9-7(5)8/h4-6H,2-3H2,1H3	InChI=1S/C7H10O2/c1-2-4-5-3-6(4)9-7(5)8/h4-6H,2-3H2,1H3/t4-,5+,6-/m1/s1
