17
gdb 112310	2.97084	1.41478	1.06055	3.3052	70.97	-0.253	0.0153	0.2682	1133.6347	0.136799	-455.121613	-455.11357	-455.112625	-455.154586	29.857	
C	 0.1486581921	 1.3052470634	 0.1543466419	-0.242216
O	 0.1407954455	-0.110506566	 0.0455005802	-0.225526
C	 0.5450390524	-0.5843771726	-1.1807701636	 0.244701
O	 1.949426242	-0.3001739057	-1.4174510165	-0.280395
C	 2.6220088154	-1.4055515803	-1.8680230032	 0.461841
N	 3.7820751507	-1.4054064744	-2.3623554589	-0.549376
C	 1.7431548809	-2.5993874209	-1.7103181347	-0.133251
N	 1.3097965264	-2.7569685141	-0.2969862546	-0.314551
C	 0.4259466739	-2.0937441263	-1.2631118233	-0.111391
H	 1.1671491547	 1.7034361774	 0.0908070677	 0.136213
H	-0.4660257877	 1.7680827333	-0.632029474	 0.108669
H	-0.2764008243	 1.5474018884	 1.1298599836	 0.135025
H	-0.0103896673	-0.090842485	-1.9956082168	 0.075792
H	 4.1600162047	-0.4566610759	-2.3920460074	 0.223896
H	 1.8908915404	-3.4615892085	-2.3462627937	 0.119354
H	 0.9927567934	-3.7153930166	-0.1658849773	 0.24237
H	-0.5177061932	-2.5377533064	-1.5558384994	 0.108844
95.6821	114.2546	160.9816	180.7226	252.469	351.9897	403.599	505.5302	526.6138	614.6966	717.195	788.9941	834.7053	856.4986	879.9584	889.4096	922.9818	954.0109	1003.4739	1029.7924	1042.2312	1094.0163	1142.2038	1153.5504	1168.3109	1179.6665	1234.3216	1258.119	1280.8969	1365.6048	1396.9167	1405.7365	1424.8659	1481.91	1486.244	1509.6659	1787.9755	2968.5819	2996.2866	3075.4078	3135.7501	3190.3636	3217.036	3471.9646	3496.6662
COC1OC(=N)C2NC12	CO[C@H]1O[C]([NH])[C@H]2N[C@@H]12	
InChI=1S/C5H8N2O2/c1-8-5-3-2(7-3)4(6)9-5/h2-3,5-7H,1H3	InChI=1S/C5H8N2O2/c1-8-5-3-2(7-3)4(6)9-5/h2-3,5-7H,1H3/t2-,3+,5-/m0/s1
