15
gdb 75323	2.62534	1.73754	1.20032	1.7985	68.08	-0.2353	-0.0571	0.1782	1000.8281	0.112982	-453.947286	-453.939692	-453.938748	-453.979214	29.035	
N	 0.2067861483	 1.3146576846	-0.2869230792	-0.579702
C	 0.0656799369	-0.0333587294	-0.1364169594	 0.338001
N	-1.0465559127	-0.6728633809	-0.1407742463	-0.310584
C	-0.7810977054	-2.0988363972	 0.0619472763	-0.186051
C	 0.7342193365	-2.2792466381	 0.1041703659	-0.04084
O	 1.3854534464	-1.8701876133	-1.0865694537	-0.272926
C	 1.2909324143	-0.9061336687	-0.0103755674	 0.238608
C	 2.5950417174	-0.4742230971	 0.5421185176	 0.085321
O	 2.7998851263	 0.6265700942	 0.9998238087	-0.270297
H	 1.0479100144	 1.7105834593	 0.1083629037	 0.275046
H	-0.6373904258	 1.854722806	-0.167634834	 0.26002
H	-1.2350811368	-2.4386387334	 1.0016180279	 0.115153
H	-1.2205125147	-2.6968907222	-0.7456790182	 0.128382
H	 1.2208659591	-3.0762028503	 0.6616131569	 0.113671
H	 3.3896571358	-1.2458995537	 0.4793594313	 0.106197
110.9536	200.0577	210.754	281.6551	294.1431	392.4178	443.1373	463.351	526.9347	564.1052	632.6893	706.5131	736.2834	780.8885	846.2723	865.9174	952.8879	971.9396	1006.17	1038.8076	1080.7444	1189.6679	1212.1044	1224.3102	1277.0474	1329.4451	1372.3564	1418.0842	1440.7755	1477.417	1626.1669	1718.9343	1800.0668	2929.61	3025.8378	3059.5936	3146.3184	3560.0396	3678.8203
NC1=NCC2OC12C=O	NC1=NC[C@H]2O[C@@]12C=O	
InChI=1S/C5H6N2O2/c6-4-5(2-8)3(9-5)1-7-4/h2-3H,1H2,(H2,6,7)	InChI=1S/C5H6N2O2/c6-4-5(2-8)3(9-5)1-7-4/h2-3H,1H2,(H2,6,7)/t3-,5-/m1/s1
