17
gdb 36443	4.76274	0.93938	0.88571	4.4546	73.28	-0.2402	0.0166	0.2568	1298.8435	0.136277	-417.955948	-417.947991	-417.947047	-417.989275	29.145	
N	-0.0267238228	-1.1616679031	-0.2029575606	-0.30003
C	-0.0492535074	-0.0148363491	-0.0688731959	 0.279654
C	-0.08026108	 1.4395866612	 0.13066206	-0.297757
N	 1.2468357529	 2.0080720987	 0.0468802507	-0.085883
C	 2.1897026262	 1.7544925159	 1.1718539344	-0.19581
C	 2.5297662567	 3.257003869	 1.2116404717	 0.106994
O	 3.4970016949	 3.6800572721	 0.2353864166	-0.292466
C	 2.4610964212	 4.0593918171	-0.7089848916	-0.072843
C	 1.3733392377	 3.4784241748	 0.2069313689	-0.051559
H	-0.7075413883	 1.8793874218	-0.6537692544	 0.156599
H	-0.5896673233	 1.6320938576	 1.0959639893	 0.125765
H	 1.6832827176	 1.4249611279	 2.0919241334	 0.101117
H	 3.0055527019	 1.0668109324	 0.9353009912	 0.132046
H	 2.6628989111	 3.7412013387	 2.1806292101	 0.09144
H	 2.4233115696	 5.1490467738	-0.8343445567	 0.103224
H	 2.574934097	 3.5674377917	-1.6797509498	 0.117639
H	 0.4518679452	 4.0348519897	 0.3913926526	 0.081873
57.6028	92.8818	148.1126	262.0514	296.1055	365.5532	387.0306	406.5142	521.6026	695.7225	775.445	823.1985	837.9889	918.3376	948.0147	964.5893	972.0995	1004.2065	1007.9986	1057.3373	1076.5686	1095.9637	1160.3287	1164.5521	1194.7907	1211.1671	1219.6711	1271.2662	1292.0346	1318.5689	1340.37	1359.0399	1394.348	1470.444	1492.4987	1504.4517	2367.7314	2906.0806	2990.6139	3017.9335	3057.1295	3083.6276	3089.9678	3098.3737	3098.8071
N#CCN1CC2OCC12	N#CCN1C[C@H]2OC[C@@H]12	
InChI=1S/C6H8N2O/c7-1-2-8-3-6-5(8)4-9-6/h5-6H,2-4H2	InChI=1S/C6H8N2O/c7-1-2-8-3-6-5(8)4-9-6/h5-6H,2-4H2/t5-,6-/m1/s1
