18
gdb 103059	2.51785	1.49713	1.12418	1.8249	78.72	-0.2379	0.0312	0.2692	1120.8985	0.146579	-401.851907	-401.843202	-401.842257	-401.885389	33.202	
O	 0.1694452963	 1.1443644678	 0.8368419299	-0.416837
C	 0.0511753143	-0.0031694584	 0.0189317808	-0.147734
C	-1.3502406125	-0.6040416844	 0.0683106655	 0.074737
C	-2.3191307396	 0.251894464	-0.5792213258	 0.261948
C	-3.0666579407	 1.0116394205	-1.1367479793	-0.397568
C	-1.6371480501	-2.0681476109	 0.0504813339	-0.060088
C	-0.5618917295	-2.8947989371	 0.7529538294	-0.27093
C	-0.8053054094	-1.979922465	 1.9820535836	-0.16575
N	-1.9277922629	-1.2484219791	 1.2891303679	-0.160898
H	-0.5431974997	 1.7466518901	 0.5922144618	 0.291664
H	 0.2822275452	 0.2192326103	-1.0337476933	 0.102559
H	 0.8051894348	-0.7062301525	 0.3746701187	 0.112596
H	-3.7481088369	 1.6648358368	-1.6235802263	 0.196254
H	-2.4334585683	-2.4652292562	-0.5713622525	 0.102643
H	-0.8862239756	-3.9219318564	 0.9289023329	 0.11798
H	 0.4328327447	-2.919602546	 0.2995904358	 0.111322
H	-1.211975254	-2.5095189859	 2.8451133466	 0.11839
H	 0.0068932337	-1.3310133277	 2.3167417005	 0.12971
54.3499	138.098	154.7051	195.6086	293.8523	332.1583	376.5703	424.4845	447.6056	518.743	554.5969	615.9098	658.2641	672.1516	781.2503	798.1302	838.8627	857.9696	946.7654	974.2669	980.4176	1009.525	1040.4917	1074.0856	1102.9113	1140.7285	1173.8565	1212.4014	1255.6666	1263.8756	1283.055	1296.7596	1369.9716	1384.3433	1430.5998	1487.2523	1499.5692	1521.2271	2233.1183	2994.033	3060.5965	3074.4851	3112.0665	3122.0018	3132.026	3161.6545	3500.3444	3789.3894
OCC1(C#C)C2CCN12	OC[C@@]1(C#C)[C@H]2CCN12	
InChI=1S/C7H9NO/c1-2-7(5-9)6-3-4-8(6)7/h1,6,9H,3-5H2	InChI=1S/C7H9NO/c1-2-7(5-9)6-3-4-8(6)7/h1,6,9H,3-5H2/t6-,7+,8?/m1/s1
