21
gdb 58044	2.0731	1.41618	0.92955	1.5142	84.27	-0.2555	0.0488	0.3043	1320.4719	0.179465	-387.036555	-387.026334	-387.02539	-387.072001	37.685	
C	-0.2122004705	 1.4569691268	-0.0166844277	-0.400776
C	-0.0282055023	-0.0626281019	 0.0756124164	 0.052752
C	 0.5716409996	-0.6093346698	-1.2275884845	-0.412692
C	 0.831464753	-0.4485146322	 1.3217037296	-0.218515
C	 0.2232775768	 0.0442278046	 2.5566805409	 0.331786
C	-0.2828920322	 0.4515929464	 3.5684965304	-0.450767
C	 1.1004696123	-1.9525096673	 1.3727855368	 0.079382
C	 0.9982314281	-2.7759101634	 2.5819428836	-0.18646
O	-0.0227821738	-2.8059871948	 1.5778406594	-0.2373
H	 0.7495948781	 1.9583787101	-0.181634047	 0.108324
H	-0.8662654544	 1.7132615087	-0.8560558598	 0.111601
H	-0.6524315528	 1.8648930566	 0.8961464381	 0.130955
H	-1.0099281861	-0.5271371293	 0.2252057563	 0.101774
H	 1.6020358302	-0.2598061328	-1.3693298651	 0.109431
H	 0.5738222999	-1.7016486896	-1.2604927935	 0.129141
H	-0.0124253955	-0.2581182052	-2.0839399447	 0.115435
H	 1.8134991542	 0.0369963723	 1.2075719309	 0.102581
H	-0.7282695704	 0.8153631794	 4.461314642	 0.195874
H	 1.7806527948	-2.2967299044	 0.5935697283	 0.097421
H	 1.5982102333	-3.681639171	 2.6617233704	 0.110203
H	 0.7080198077	-2.3116107333	 3.5206916192	 0.129851
54.8854	60.5475	149.0911	171.0735	193.9058	235.2207	252.0355	321.1318	355.6339	386.7813	411.4589	450.7914	527.8054	621.9985	637.7648	652.7305	777.0807	844.4261	886.2244	910.3195	933.694	962.0244	972.0944	984.308	1084.5363	1092.6184	1137.2607	1149.8377	1168.5398	1180.4876	1187.9293	1267.5309	1298.4138	1329.4028	1351.712	1363.3032	1400.7218	1422.2683	1426.0022	1487.9426	1494.6044	1503.7779	1515.8146	1523.1009	2231.4949	2986.0139	3025.6171	3028.526	3045.0748	3090.2335	3090.3107	3097.8617	3106.5423	3118.9347	3124.1496	3190.3689	3502.2847
CC(C)C(C#C)C1CO1	CC(C)[C@@H](C#C)[C@H]1CO1	
InChI=1S/C8H12O/c1-4-7(6(2)3)8-5-9-8/h1,6-8H,5H2,2-3H3	InChI=1S/C8H12O/c1-4-7(6(2)3)8-5-9-8/h1,6-8H,5H2,2-3H3/t7-,8-/m1/s1
