18
gdb 26688	2.27513	1.55348	0.93448	1.7874	76.96	-0.1633	0.0503	0.2136	1233.6106	0.144995	-439.123718	-439.113067	-439.112123	-439.159255	37.06	
C	-0.0557296013	 1.5264252408	 0.0954090266	-0.509024
C	 0.0117387539	 0.0433912417	-0.0113042454	 0.217665
C	 0.0156673471	-0.7818577276	-1.1047920276	 0.177169
O	-0.0881732563	-0.3364407889	-2.3991796104	-0.456053
C	 0.0794485782	-2.154134223	-0.6833157351	 0.018345
C	 0.0817377609	-3.3663092816	-1.5621227836	-0.540226
C	 0.1166397098	-2.0982745043	 0.6918789331	 0.306943
O	 0.17939038	-3.060402991	 1.6516692255	-0.438731
N	 0.0649356512	-0.801535287	 1.0996258603	-0.366723
H	 0.7788523045	 1.9441744446	 0.67453562	 0.114278
H	-0.0091085129	 1.9545731831	-0.9086397925	 0.146691
H	-0.9849997778	 1.880625403	 0.562527772	 0.118451
H	 0.3220813831	-0.985300875	-2.9781797498	 0.292004
H	 1.0491355083	-3.5502130252	-2.0508316139	 0.120541
H	-0.1626462439	-4.2757010004	-0.9999951944	 0.105754
H	-0.6714903746	-3.2864916609	-2.3559341447	 0.130454
H	 0.2805227517	-3.9128261645	 1.2176633095	 0.302999
H	 0.1052096879	-0.5108167637	 2.0602534705	 0.259463
74.2533	124.6729	126.9366	144.5459	172.789	188.5615	230.7203	242.3095	255.8834	286.4691	310.7702	419.1117	537.8477	596.7366	604.6678	642.6925	685.2233	741.1474	864.7642	981.1151	1024.3941	1057.6107	1064.7988	1149.2025	1173.9589	1236.362	1251.4531	1289.2296	1380.0963	1413.4832	1420.9409	1462.1291	1480.6602	1481.6613	1498.4121	1508.6569	1558.856	1622.1777	1700.3039	2996.4181	3000.6468	3037.6947	3044.5584	3070.2767	3122.8136	3690.2835	3832.9111	3844.0392
CC1=C(O)C(C)=C(O)N1	Cc1c(O)c(C)c(O)[nH]1	
InChI=1S/C6H9NO2/c1-3-5(8)4(2)7-6(3)9/h7-9H,1-2H3	InChI=1S/C6H9NO2/c1-3-5(8)4(2)7-6(3)9/h7-9H,1-2H3
