13
gdb 21331	6.32968	1.30463	1.0889	1.8108	62.67	-0.255	0.0075	0.2626	992.0596	0.098189	-357.677693	-357.670853	-357.669909	-357.709972	24.24	
N	-0.4069761338	-0.5844680421	 1.4185464687	-0.313211
C	-0.1964378015	 0.2164733122	 0.6130732555	 0.275311
C	 0.0922701646	 1.2359239126	-0.3956228683	-0.467335
C	 1.4137422293	 1.9225163825	-0.1688955749	 0.201513
C	 2.3309984877	 1.7009669211	 0.837946355	-0.10007
N	 3.3532461516	 2.5597731254	 0.6142531305	-0.187765
N	 3.1724461727	 3.3323637021	-0.4717613906	-0.216417
C	 1.9943318088	 2.9483101093	-0.9510305635	-0.082875
H	 0.0654002315	 0.7545095415	-1.3814514132	 0.166949
H	-0.7317162172	 1.9607124012	-0.3904616564	 0.166934
H	 2.3223593012	 1.013312213	 1.6685305836	 0.161885
H	 4.193925279	 2.6689025704	 1.1558410281	 0.280551
H	 1.598802136	 3.4179155107	-1.8403505545	 0.114529
28.6033	121.0131	249.1465	322.3876	378.9163	484.6809	531.2863	639.557	695.8529	732.2228	808.9506	877.1847	943.6622	955.2357	961.4259	1012.5404	1071.1366	1168.0144	1223.8017	1227.0018	1304.2284	1326.5116	1403.8378	1420.3996	1466.597	1496.1937	1615.7451	2366.3982	3027.6281	3054.0435	3241.2149	3268.5801	3676.1647
N#CCC1=CNN=C1	N#CCc1c[nH]nc1	
InChI=1S/C5H5N3/c6-2-1-5-3-7-8-4-5/h3-4H,1H2,(H,7,8)	InChI=1S/C5H5N3/c6-2-1-5-3-7-8-4-5/h3-4H,1H2,(H,7,8)
