23
gdb 40217	2.02717	1.93666	1.25489	0.2428	88.56	-0.2448	0.0895	0.3343	1120.3412	0.207464	-351.145929	-351.137487	-351.136543	-351.179245	34.088	
C	-0.4249018067	 1.4675152698	 0.1607379492	-0.307335
C	 1.0250353455	 1.1189683695	-0.0956640083	-0.351811
C	-0.0024294255	 0.0301892587	-0.0415613048	 0.322753
C	-0.1108369312	-0.9559789603	 1.1115261965	-0.287783
C	-1.4386748022	-1.6845127536	 0.8153858841	-0.203238
C	-1.5495904315	-1.7208520799	-0.7366090838	-0.292387
C	-0.4634003332	-0.7586407863	-1.2481944378	 0.336448
C	-0.488656764	-0.1952800255	-2.6390728133	-0.342152
C	 0.541338605	-1.2376592833	-2.2718299805	-0.308149
H	-0.706080726	 1.7866666078	 1.1594325497	 0.105095
H	-0.9738534356	 1.9565719711	-0.6371512371	 0.109152
H	 1.4482124401	 1.3891355643	-1.058751257	 0.108131
H	 1.7270632783	 1.2011684151	 0.7279560143	 0.1082
H	 0.7282447333	-1.6629432037	 1.0750573867	 0.096588
H	-0.0941015898	-0.4751278789	 2.0942067868	 0.088554
H	-1.4805924419	-2.68128914	 1.2623744684	 0.092897
H	-2.2710090437	-1.1103935154	 1.2347696042	 0.1007
H	-1.3933507678	-2.7306868968	-1.1287961736	 0.096935
H	-2.5467379227	-1.4064060458	-1.0618526884	 0.098344
H	-1.3065793007	-0.4878488137	-3.2900364414	 0.107771
H	-0.1476321645	 0.8239189683	-2.7965012552	 0.107191
H	 1.5722889159	-0.9152982758	-2.1677413745	 0.109687
H	 0.4225814088	-2.2384582556	-2.6752018842	 0.104409
35.2476	143.868	215.849	229.6147	309.9024	323.1045	366.0606	497.0647	516.9292	551.2755	632.0834	777.089	781.7002	796.2637	824.1636	855.2124	893.9321	901.0144	914.2094	940.1523	951.2683	969.6933	978.8042	991.2711	1028.4447	1049.1458	1058.6059	1077.2756	1078.9255	1098.5698	1160.0035	1182.9793	1188.5831	1190.4531	1233.7596	1252.2782	1273.5592	1295.07	1316.2504	1335.2535	1367.1277	1401.7486	1463.8625	1465.8222	1487.6602	1490.1272	1502.5621	1507.7821	1511.4625	3021.1361	3037.7369	3050.2394	3071.4998	3080.2743	3099.2951	3116.4301	3118.7517	3122.1282	3124.0695	3193.4591	3195.1744	3210.7328	3212.2507
C1CC11CCCC11CC1	C1CC21CCCC12CC1	
InChI=1S/C9H14/c1-2-8(4-5-8)9(3-1)6-7-9/h1-7H2	InChI=1S/C9H14/c1-2-8(4-5-8)9(3-1)6-7-9/h1-7H2
