21
gdb 104237	2.24908	1.33357	1.08945	2.0714	82.4	-0.2193	0.0329	0.2522	1258.2254	0.180026	-420.386521	-420.375876	-420.374932	-420.422221	37.637	
C	 0.0338331186	 1.2850041895	-0.2023592684	-0.258723
O	-0.0930485287	-0.0921677575	 0.1203326937	-0.287381
C	 0.6547619862	-0.5271469888	 1.2347203504	 0.297978
C	 0.2052187413	 0.0996966357	 2.5491869278	-0.455487
C	 0.7480399956	-2.0866727258	 1.211958903	-0.203892
N	 2.181774121	-1.9432146559	 0.9150478399	-0.356461
C	 2.1842458867	-0.5583499821	 1.0278816799	 0.382996
N	 3.0601655491	 0.3521131939	 0.9834120968	-0.33457
C	 4.4407758091	-0.0676563493	 0.7806002936	-0.340473
H	 1.0850308111	 1.5866730984	-0.26834168	 0.144391
H	-0.4468284658	 1.4171944169	-1.1747324681	 0.122109
H	-0.4762926665	 1.9285020121	 0.5278162734	 0.104438
H	-0.8745724201	-0.0270479365	 2.676905088	 0.121313
H	 0.7174769722	-0.3690272834	 3.3943736677	 0.118461
H	 0.4435804615	 1.1661032176	 2.573500308	 0.139037
H	 0.5226460558	-2.5689877741	 2.1691400988	 0.103237
H	 0.1716231673	-2.5505430646	 0.4078614956	 0.119387
H	 2.9223317591	-2.5859004139	 1.1486466243	 0.244952
H	 4.5410528431	-0.8725111322	 0.0358041882	 0.10493
H	 5.0345484207	 0.7844749331	 0.438828676	 0.122922
H	 4.8932739126	-0.4234922532	 1.7179376611	 0.110834
78.092	101.9617	104.1455	131.1592	172.7839	187.0896	242.2539	252.9316	288.6147	320.519	341.5319	409.0847	440.0495	574.7729	687.7705	721.8617	784.027	896.5545	904.3684	957.4173	1005.0531	1034.8031	1095.4048	1110.5979	1142.2237	1150.1712	1165.8499	1184.2549	1191.3547	1212.3726	1241.279	1253.7551	1313.4783	1379.973	1400.2372	1436.1173	1474.6018	1480.9922	1486.5709	1491.1698	1502.1989	1505.4628	1512.8881	1515.706	1801.6168	2975.0587	3002.607	3025.5288	3038.0234	3042.4295	3074.188	3094.2017	3102.449	3114.4284	3119.8866	3123.3553	3624.8453
COC1(C)CNC1=NC	CO[C@@]1(C)CNC1=NC	
InChI=1S/C6H12N2O/c1-6(9-3)4-8-5(6)7-2/h4H2,1-3H3,(H,7,8)	InChI=1S/C6H12N2O/c1-6(9-3)4-8-5(6)7-2/h4H2,1-3H3,(H,7,8)/t6-/m0/s1
