22
gdb 102508	2.07266	1.19393	0.82588	4.363	82.61	-0.264	0.0264	0.2903	1449.6037	0.192507	-404.368505	-404.357639	-404.356695	-404.404658	39.132	
C	 0.1225650103	 1.5307319942	 0.0398483366	-0.392034
C	 0.0053054312	 0.0283133655	-0.2375533357	-0.194753
C	-1.4241865772	-0.5277115391	-0.0664250668	 0.028342
C	-2.2900533624	-0.1760737612	-1.2973983703	-0.093602
O	-3.6766055984	-0.1349702729	-1.0352255721	-0.426714
C	-1.3634199205	-2.0601942391	 0.2230259924	-0.15939
C	-0.9469837273	-2.3856513464	 1.6725352939	-0.399988
C	-2.6341411417	-2.7319783843	-0.0730099286	 0.278918
N	-3.6375551165	-3.2556380575	-0.3136710014	-0.346623
H	 1.1459973436	 1.8790599723	-0.128568313	 0.118751
H	-0.5359678707	 2.1212808745	-0.6041707753	 0.128764
H	-0.1417038467	 1.7581053489	 1.0780322742	 0.121752
H	 0.345907438	-0.1902370665	-1.2594863924	 0.102089
H	 0.6970082985	-0.5034646868	 0.4250607193	 0.098914
H	-1.9016646251	-0.0466273264	 0.7963848143	 0.092664
H	-2.0233017934	 0.8296995756	-1.6360013522	 0.10895
H	-2.0478090548	-0.8628161204	-2.1255203498	 0.092741
H	-4.0048642015	-1.0384213789	-0.9660528101	 0.300832
H	-0.6256032638	-2.4978825304	-0.4637970966	 0.127417
H	-0.8574729818	-3.4644433162	 1.8224904178	 0.138226
H	 0.0171212778	-1.9275764673	 1.9041462472	 0.132023
H	-1.6892750276	-2.0023871776	 2.3780141388	 0.142721
48.1239	85.9562	130.012	163.3615	196.7832	209.2398	211.7726	268.8907	281.606	294.2574	388.5083	414.6154	433.8624	484.2782	553.8913	596.803	769.1286	801.4881	878.5108	909.5851	967.8214	985.6432	1027.3982	1054.248	1084.9896	1091.7881	1128.3184	1146.0788	1156.0412	1236.4976	1262.1653	1291.8823	1322.5918	1338.7361	1352.3897	1386.6365	1403.7885	1413.8612	1416.717	1435.3626	1485.585	1493.7458	1495.2432	1499.497	1505.3177	1509.3044	2341.9707	2969.1728	3012.959	3015.6303	3037.5074	3040.1166	3052.1008	3060.2261	3078.7352	3106.1212	3111.4203	3127.5513	3133.6405	3801.412
CCC(CO)C(C)C#N	CC[C@@H](CO)[C@@H](C)C#N	
InChI=1S/C7H13NO/c1-3-7(5-9)6(2)4-8/h6-7,9H,3,5H2,1-2H3	InChI=1S/C7H13NO/c1-3-7(5-9)6(2)4-8/h6-7,9H,3,5H2,1-2H3/t6-,7-/m0/s1
