21
gdb 95458	2.77047	1.16372	0.93476	0.6782	90.23	-0.2334	0.0216	0.255	1329.6403	0.1818	-349.941976	-349.932557	-349.931613	-349.97637	35.652	
C	 0.0160827213	 1.5963466654	-0.0723945917	-0.398433
C	 0.0700322046	 0.0672725479	 0.0190776532	-0.059616
C	 0.7312926622	-0.5992996473	-1.215331996	-0.212511
C	 1.440206889	-1.8677936785	-0.6841629815	-0.254973
C	 1.5987531512	-1.5660011759	 0.7850282114	-0.169605
C	 0.8721562973	-0.5180281152	 1.1751820297	 0.339958
C	 0.7455871893	-0.0259706556	 2.5997072526	-0.465506
C	 1.4326065943	 1.239502046	 2.8621967008	 0.323453
C	 2.0113022889	 2.268563582	 3.0878143785	-0.470091
H	 1.0216983075	 2.0209953468	-0.1514395616	 0.122329
H	-0.5541975699	 1.9020790626	-0.9563863257	 0.10692
H	-0.4626153685	 2.0426396012	 0.8041342147	 0.117862
H	-0.9675362676	-0.2926966017	 0.1207809182	 0.072782
H	 0.0157478354	-0.808262477	-2.0152350899	 0.09319
H	 1.4803791592	 0.089255877	-1.6228924498	 0.101973
H	 0.8280146439	-2.7701232533	-0.8276307539	 0.103156
H	 2.392782578	-2.0626560722	-1.1898111954	 0.101964
H	 2.2037827557	-2.1767377309	 1.4480256912	 0.085021
H	-0.3176895712	 0.088976434	 2.8560311733	 0.131687
H	 1.1418292862	-0.7891425508	 3.2803304311	 0.135307
H	 2.5191329133	 3.1800134755	 3.2838701607	 0.195134
55.3616	91.0973	128.0201	234.394	241.0746	256.4474	339.3607	339.9716	368.4008	421.7858	559.042	601.464	614.8884	633.7581	722.6973	771.2081	823.1424	854.6885	908.2425	922.938	952.0675	956.3432	974.1816	1023.478	1057.2491	1101.9065	1116.5498	1164.2975	1205.7651	1209.6228	1240.7044	1289.9237	1317.0316	1321.4933	1336.4217	1341.2849	1372.5217	1414.672	1462.0847	1483.9274	1492.4612	1496.6695	1501.5374	1714.2864	2235.9259	2957.1202	3001.8518	3002.9981	3032.608	3038.4821	3050.9681	3055.8839	3093.423	3100.3056	3111.6969	3178.6909	3506.6309
CC1CCC=C1CC#C	C[C@H]1CCC=C1CC#C	
InChI=1S/C9H12/c1-3-5-9-7-4-6-8(9)2/h1,7-8H,4-6H2,2H3	InChI=1S/C9H12/c1-3-5-9-7-4-6-8(9)2/h1,7-8H,4-6H2,2H3/t8-/m0/s1
