16
gdb 71483	3.89242	1.25362	1.09817	2.6785	70.51	-0.2502	-0.0302	0.22	1083.8449	0.123549	-437.824215	-437.816666	-437.815722	-437.856147	29.293	
O	 0.1479467977	 1.3754106427	 0.1284643284	-0.46425
C	 0.0233953644	 0.012422469	 0.0058913557	 0.36697
C	 0.2154215528	-0.6219937057	-1.3775799792	-0.181126
N	-0.6851998738	-1.7531582459	-0.9679512535	-0.176581
C	-1.2857586223	-0.9145954727	 0.0780753449	-0.186332
C	-0.3266261467	-1.9918049576	 0.4921033789	 0.264823
C	 0.7348461449	-0.9952464959	 0.9436833688	-0.37566
C	-0.6432651905	-3.3136637973	 1.0540765639	 0.05785
O	-0.1148099104	-3.7628271028	 2.0431558621	-0.265342
H	 0.1898882501	 1.6087095572	 1.0619716429	 0.291959
H	-0.2804341593	-0.0611129689	-2.1726128846	 0.126656
H	 1.2277148361	-0.9090458349	-1.6813913376	 0.109021
H	-2.34838571	-0.7882852434	 0.2438896993	 0.114157
H	 1.7888926614	-1.21372247	 0.7476508908	 0.113106
H	 0.5913994001	-0.75403883	 2.0009471756	 0.117178
H	-1.4245578547	-3.8690648339	 0.4925690736	 0.087571
106.5384	163.135	229.3032	308.6409	347.0129	372.9172	434.184	470.2239	483.3428	614.5016	689.7865	737.8962	765.3328	838.6839	898.1475	941.6404	962.5367	966.9504	996.232	1025.0883	1078.0461	1098.0866	1118.0132	1127.0357	1153.9274	1197.2061	1238.6089	1277.6469	1330.8454	1366.2298	1402.8489	1422.6327	1492.5778	1517.5578	1805.7139	2909.967	3047.2176	3053.6384	3109.2873	3123.3777	3197.7912	3811.45
OC12CN3C1C3(C2)C=O	O[C@]12CN3[C@H]1[C@@]3(C2)C=O	
InChI=1S/C6H7NO2/c8-3-5-1-6(9)2-7(5)4(5)6/h3-4,9H,1-2H2	InChI=1S/C6H7NO2/c8-3-5-1-6(9)2-7(5)4(5)6/h3-4,9H,1-2H2/t4-,5+,6+,7?/m0/s1
