24
gdb 99783	1.85683	1.43734	0.87207	1.5589	85.85	-0.2446	0.074	0.3186	1415.1821	0.215743	-405.514378	-405.503665	-405.502721	-405.550007	39.444	
C	-0.2665054334	 0.2314179581	-0.8466049154	-0.237336
O	-0.1306489882	-0.8024723722	 0.1015082599	-0.243607
C	 0.7549046662	-0.5429354469	 1.1839374965	 0.103108
C	 0.4423944216	-1.6132347773	 2.2495429883	 0.030418
C	 1.3569093799	-1.5091757435	 3.4780921968	-0.413461
C	-1.0336618969	-1.5511595344	 2.6661378872	-0.396088
C	 2.2003649039	-0.5612393518	 0.71519347	 0.003142
C	 2.8559720255	 0.6700833097	 0.2014321669	-0.252115
N	 3.2623442271	 0.0996888454	 1.4938780171	-0.320093
H	 0.6391138695	 0.3727141255	-1.4507588106	 0.115441
H	-1.0879833251	-0.0529943705	-1.5095049437	 0.125488
H	-0.5171975429	 1.1915071929	-0.3681755497	 0.099232
H	 0.5399760971	 0.4589561637	 1.6059609762	 0.048822
H	 0.6210229433	-2.5839767829	 1.7669224422	 0.082263
H	 1.1008024937	-2.2880986326	 4.2032470818	 0.113174
H	 2.4134242717	-1.620558332	 3.2236893558	 0.141132
H	 1.2286083584	-0.5439569462	 3.9847340128	 0.103689
H	-1.690783582	-1.6409357001	 1.7999793037	 0.130354
H	-1.2696208236	-2.3563136833	 3.3692699965	 0.106327
H	-1.2568129251	-0.6004496239	 3.1666570936	 0.103184
H	 2.5079194184	-1.5161103798	 0.2919340267	 0.096815
H	 3.6015073452	 0.6035199918	-0.5859021194	 0.119791
H	 2.2801600341	 1.5923014625	 0.2026390226	 0.110019
H	 2.8467013317	 0.6394280577	 2.2500615042	 0.2303
68.2101	98.1041	121.6629	170.6617	197.4385	215.4457	224.9225	274.2892	288.1994	345.2186	364.3643	380.7413	447.7686	487.291	524.4335	813.6559	856.5621	878.5729	919.8235	933.4141	954.2966	966.1141	986.1577	991.8782	1032.1464	1119.0376	1132.8158	1146.6922	1158.7729	1165.4165	1181.0274	1196.3998	1212.8714	1233.133	1257.2487	1290.2121	1300.8506	1336.1296	1348.7648	1381.0118	1396.4813	1418.7121	1428.2063	1476.9774	1488.1484	1490.7672	1495.905	1505.7552	1509.3714	1513.757	1519.1387	2906.7084	2978.683	3014.4316	3023.7622	3030.7428	3042.2034	3086.3893	3093.4302	3105.4529	3108.3577	3122.5025	3123.6293	3138.5329	3190.8152	3489.6999
COC(C(C)C)C1CN1	CO[C@@H](C(C)C)[C@H]1CN1	
InChI=1S/C7H15NO/c1-5(2)7(9-3)6-4-8-6/h5-8H,4H2,1-3H3	InChI=1S/C7H15NO/c1-5(2)7(9-3)6-4-8-6/h5-8H,4H2,1-3H3/t6-,7+/m1/s1
