19
gdb 114641	1.97814	1.7175	1.08865	1.7297	71.19	-0.241	0.0399	0.281	1138.1899	0.158708	-460.104724	-460.095944	-460.095	-460.138133	33.315	
O	 0.2000359313	 0.356599639	 1.0855319822	-0.402185
C	-0.0938105295	 0.1303506572	-0.2970246231	-0.118717
C	-1.4391196069	-0.5676761801	-0.4102326229	 0.077548
O	-1.8331784064	-0.9716182038	-1.7463439373	-0.311737
C	-2.0969762023	-2.3014593277	-1.2700454748	 0.031271
C	-0.8289755715	-2.9404551985	-0.8080145263	-0.342608
C	-1.5738124877	-1.9957867597	 0.1188435258	 0.245609
C	-1.9685788496	-2.3188395955	 1.5281200997	-0.171949
O	-0.885222576	-2.1456154136	 2.4266112301	-0.426841
H	-0.3409551158	 1.0921053133	 1.3917415987	 0.295638
H	-0.0830134787	 1.0682654556	-0.8676861225	 0.11098
H	 0.7067847523	-0.506473141	-0.6806525028	 0.126848
H	-2.2219629414	 0.0775751811	 0.0200816859	 0.071603
H	-2.9842521953	-2.8028197433	-1.6386606306	 0.110012
H	-0.905952752	-3.9822354675	-0.5107267968	 0.121123
H	 0.1094340741	-2.6696174823	-1.2838469641	 0.116081
H	-2.8319440288	-1.6950633779	 1.8196650057	 0.077531
H	-2.2853349958	-3.3644559573	 1.6116132002	 0.103298
H	-0.4394617599	-1.3199349284	 2.1842762831	 0.286494
106.1314	112.4819	144.7649	227.7466	239.1547	313.0411	330.0744	382.9414	427.6379	485.9688	519.6982	575.213	711.3597	740.1239	859.3099	887.6602	913.8175	966.0684	989.2962	1013.076	1026.3911	1040.2756	1049.9316	1064.5483	1073.4542	1084.8085	1136.6339	1181.5641	1195.8144	1253.2666	1266.4682	1307.3447	1350.1128	1376.8692	1390.0689	1398.2977	1422.098	1461.6383	1485.4198	1502.4838	1509.4056	2945.2447	2974.1521	3025.6039	3059.7919	3108.9241	3116.8179	3183.5419	3205.8945	3704.4235	3817.6911
OCC1OC2CC12CO	OC[C@H]1O[C@H]2C[C@@]12CO	
InChI=1S/C6H10O3/c7-2-5-6(3-8)1-4(6)9-5/h4-5,7-8H,1-3H2	InChI=1S/C6H10O3/c7-2-5-6(3-8)1-4(6)9-5/h4-5,7-8H,1-3H2/t4-,5+,6-/m0/s1
