19
gdb 32324	2.94926	1.30539	0.97666	3.5914	79.58	-0.1835	0.0342	0.2177	1238.344	0.159154	-419.239151	-419.229776	-419.228832	-419.273645	33.94	
C	-0.1901376253	 1.52240402	-0.0024209294	-0.375475
C	 0.0581961231	 0.0030227535	 0.0124512163	-0.303484
C	 0.7650627227	-0.5122594561	-1.1965863145	 0.284571
C	 2.0207864268	-0.9584338297	-1.3322168947	-0.15407
O	 2.2620302969	-1.3223458794	-2.6475380254	-0.220558
C	 1.109736903	-1.0943801908	-3.3643520365	 0.460085
N	 0.9176577343	-1.2947744518	-4.6042429973	-0.621736
N	 0.1800169885	-0.6014867528	-2.4694043268	-0.143864
C	-1.166331818	-0.2605584676	-2.8694486341	-0.338422
H	 0.7547705592	 2.0661580667	-0.0903715248	 0.128536
H	-0.8267302432	 1.820717591	-0.8402396764	 0.126603
H	-0.6841777329	 1.837764589	 0.9214082175	 0.119809
H	 0.6657885634	-0.2582212021	 0.8847971778	 0.120199
H	-0.8966841502	-0.5237540956	 0.1387251488	 0.11593
H	 2.83231224	-1.0805023886	-0.6374020742	 0.144286
H	 1.75009761	-1.6827962105	-5.0384760607	 0.222268
H	-1.396526967	-0.8303524629	-3.771259021	 0.17377
H	-1.8763103888	-0.5233780721	-2.0811857488	 0.12898
H	-1.2702756125	 0.8067265999	-3.1005596758	 0.132573
75.8803	99.0005	108.7299	156.7373	195.6203	225.9865	289.6711	328.9392	401.599	527.336	577.2848	634.842	682.3117	702.2798	709.629	743.4442	773.6778	806.7639	949.8399	985.0572	1018.4468	1064.0131	1084.3322	1110.3889	1154.9464	1198.6938	1209.2697	1263.4724	1297.0417	1341.729	1372.124	1407.8523	1428.8313	1467.2348	1484.3296	1494.3777	1496.6198	1507.1337	1516.2602	1704.6741	1770.4882	3023.2362	3025.2858	3044.0941	3076.4348	3094.9602	3116.1262	3121.5709	3145.4795	3300.013	3546.5011
CCC1=COC(=N)N1C	CCC1=CO[C@@H]([NH])N1C	
InChI=1S/C6H10N2O/c1-3-5-4-9-6(7)8(5)2/h4,7H,3H2,1-2H3	InChI=1S/C6H11N2O/c1-3-5-4-9-6(7)8(5)2/h4,6-7H,3H2,1-2H3/t6-/m0/s1
