19
gdb 71619	3.07461	1.68187	1.57973	1.4025	73.14	-0.2305	0.0902	0.3207	940.0603	0.161344	-423.012868	-423.005933	-423.004989	-423.04377	28.889	
C	-0.1009224981	 1.4981647711	 0.0211992651	-0.503939
C	 0.0482661151	 0.0045447262	 0.0014672501	 0.404375
C	 0.4633652837	-0.726501269	-1.2979026951	-0.266863
C	 0.5250237758	-2.1459607359	-0.6742315517	 0.074107
O	 1.8503065205	-2.42072572	-0.2269042389	-0.274254
C	 2.1481690955	-1.4247657643	 0.7698991849	-0.118893
C	 0.7931037977	-0.8234632375	 1.1158626637	-0.105313
C	-0.2736767721	-1.823800976	 0.6325040878	 0.075522
O	-1.1775571661	-0.7442306909	 0.3172356003	-0.334236
H	 0.8628243255	 1.9794091262	-0.1747619569	 0.123194
H	-0.8059723432	 1.8227353708	-0.7511729588	 0.13158
H	-0.4711721618	 1.8413685226	 0.9913541743	 0.12781
H	-0.3166666443	-0.6078535743	-2.0533637164	 0.106846
H	 1.4293057707	-0.4336799901	-1.7168946486	 0.104607
H	 0.1927477727	-2.9777807163	-1.2928029116	 0.081387
H	 2.6157474602	-1.9200356372	 1.6281505565	 0.109468
H	 2.8604883322	-0.6862237249	 0.3755081553	 0.097707
H	 0.6628891746	-0.4224661657	 2.1197754725	 0.082511
H	-0.6990767487	-2.6340472448	 1.2217856375	 0.084384
189.896	218.6623	244.614	300.5558	423.5722	444.3635	524.6897	565.3882	638.2006	712.2963	743.6086	813.8378	829.4109	867.9389	880.101	920.7596	930.7543	969.8459	984.3501	995.6203	1012.7835	1038.919	1058.0422	1112.4031	1131.018	1164.9811	1181.0594	1208.1164	1235.3172	1251.6484	1265.3599	1274.1887	1302.7759	1328.8769	1362.4329	1388.7875	1415.8548	1475.7649	1480.1708	1492.2899	1521.2631	3001.1691	3037.1518	3056.7175	3067.1805	3106.6573	3115.581	3121.9851	3132.5945	3135.661	3146.5218
CC12CC3OCC1C3O2	C[C@@]12C[C@H]3OC[C@@H]1[C@H]3O2	
InChI=1S/C7H10O2/c1-7-2-5-6(9-7)4(7)3-8-5/h4-6H,2-3H2,1H3	InChI=1S/C7H10O2/c1-7-2-5-6(9-7)4(7)3-8-5/h4-6H,2-3H2,1H3/t4-,5-,6-,7-/m1/s1
