21
gdb 84833	2.67412	1.534	1.11619	1.6962	83.99	-0.2412	0.0269	0.268	1168.0542	0.182537	-387.103149	-387.094462	-387.093518	-387.136022	34.055	
C	 0.4285348206	 1.5607580065	 0.0013150496	-0.389289
C	-0.0280672043	 0.089176039	 0.0134623449	-0.066641
C	 0.3305318333	-0.6081633283	-1.2730223986	-0.052214
C	 0.9156774496	-1.7996199981	-1.3575212981	-0.06099
C	 1.2958302156	-2.6484355142	-0.177305715	-0.333545
C	 1.1607585735	-1.9513287535	 1.163714596	 0.397306
C	 1.1763165001	-2.8515021462	 2.3780783637	-0.469647
O	 1.9511691691	-0.756865744	 1.2964995344	-0.299312
C	 0.5248009864	-0.6247038221	 1.2307037279	-0.009804
H	 1.5194097282	 1.6141470366	-0.0500659521	 0.138528
H	 0.0142154664	 2.0909331798	-0.8619634123	 0.110527
H	 0.1016787434	 2.0821391163	 0.9070444979	 0.110767
H	-1.1253346635	 0.0825339792	 0.1142258207	 0.082689
H	 0.0837000757	-0.0690017313	-2.1853683813	 0.083133
H	 1.1345372462	-2.2195603186	-2.3364183953	 0.085974
H	 0.6788432823	-3.5590543693	-0.1659742228	 0.110436
H	 2.3313601974	-3.0023766811	-0.2853725145	 0.116151
H	 2.0895966451	-3.4570718507	 2.3963643272	 0.123941
H	 1.1437764414	-2.2583612378	 3.2953442487	 0.126867
H	 0.3210027602	-3.535774008	 2.3718531919	 0.118703
H	 0.0704543734	-0.3268008943	 2.1785648772	 0.076421
91.0895	161.3281	204.596	244.2244	251.0622	298.9266	351.6024	378.3991	432.3566	476.2116	505.0019	618.4801	682.0399	743.8973	755.1816	850.461	887.8575	906.7768	928.2372	969.8567	999.755	1007.871	1013.658	1048.7279	1065.9067	1098.5973	1133.8893	1158.0044	1206.5443	1225.6266	1251.8016	1309.5663	1332.206	1366.4267	1386.5034	1398.2398	1411.9396	1424.4064	1459.5718	1471.6736	1489.9921	1494.9081	1503.3867	1506.1655	1736.1761	2975.7448	2999.5496	3022.4084	3032.1139	3035.404	3078.9531	3094.0531	3102.6471	3121.7466	3121.8556	3138.2947	3162.7513
CC1C=CCC2(C)OC12	C[C@H]1C=CC[C@@]2(C)O[C@@H]12	
InChI=1S/C8H12O/c1-6-4-3-5-8(2)7(6)9-8/h3-4,6-7H,5H2,1-2H3	InChI=1S/C8H12O/c1-6-4-3-5-8(2)7(6)9-8/h3-4,6-7H,5H2,1-2H3/t6-,7-,8+/m0/s1
