17
gdb 36084	3.76201	1.2132	1.12299	5.0965	76.43	-0.2409	-0.0054	0.2354	1109.8418	0.137456	-380.828002	-380.820569	-380.819624	-380.86031	29.11	
N	-0.0828640332	-1.1890692506	 0.0448358872	-0.306835
C	-0.0450714576	-0.0345666712	 0.0506169406	 0.276544
C	-0.007109506	 1.4281200374	 0.0404124943	-0.478979
C	 1.4036260058	 1.9921452447	 0.009425243	 0.295656
C	 1.7023822538	 3.5273414013	 0.0871567562	-0.269328
C	 3.0738681363	 2.9220309755	 0.528556849	-0.064426
N	 2.315078701	 1.7885040344	 1.2172802313	-0.33094
C	 3.4994983606	 2.1933941162	-0.7525261467	-0.060294
C	 2.3777428838	 1.5668617689	-1.1044408484	-0.084843
H	-0.5590706755	 1.7829248245	-0.8383616058	 0.159371
H	-0.5454352466	 1.8000229226	 0.9198541096	 0.150022
H	 1.6562555834	 4.118684458	-0.8320232777	 0.100954
H	 1.1681381379	 4.0265154741	 0.9038077858	 0.092733
H	 3.8134210729	 3.4705269813	 1.1091631623	 0.07831
H	 1.8363686996	 2.2024222547	 2.0251576534	 0.203872
H	 4.4783285378	 2.2005935014	-1.2077099355	 0.114856
H	 2.1572536159	 0.8982781369	-1.9233328686	 0.123329
61.1338	111.0496	284.9716	292.5864	388.2639	449.8214	482.7726	532.4627	586.5739	682.2194	708.672	734.4728	829.437	834.598	883.0967	905.5913	910.8515	930.9395	953.3968	1001.1533	1013.5268	1039.9881	1060.499	1099.8801	1147.1455	1192.1295	1210.1924	1236.9142	1255.6748	1278.4811	1312.7666	1345.5594	1372.0145	1458.7206	1496.2695	1631.1999	2366.1859	3030.7804	3039.1176	3076.1981	3099.6744	3138.6938	3234.4086	3261.0925	3374.8721
N#CCC12CC(N1)C=C2	N#CC[C@@]12C[C@@H](N1)C=C2	
InChI=1S/C7H8N2/c8-4-3-7-2-1-6(5-7)9-7/h1-2,6,9H,3,5H2	InChI=1S/C7H8N2/c8-4-3-7-2-1-6(5-7)9-7/h1-2,6,9H,3,5H2/t6-,7-/m0/s1
