18
gdb 54867	3.24462	1.30974	1.2143	3.3904	76.69	-0.2295	0.0188	0.2483	1088.725	0.148926	-401.97793	-401.969707	-401.968763	-402.01132	31.383	
N	 0.149934809	 1.040731267	 0.756181035	-0.529595
C	-0.070624256	 0.2830750488	-0.3599452376	 0.420018
O	 0.7129963356	 0.2559904921	-1.2896182434	-0.365962
C	-1.3706454935	-0.5302454863	-0.3412965941	-0.167115
C	-2.0391815838	-0.5986172639	-1.7024305452	-0.065183
C	-2.2624133239	-1.8538878193	-2.0930975222	-0.084791
C	-1.7339722115	-2.8455871496	-1.1138742817	-0.080203
C	-0.229857533	-2.8133952903	-0.9181798683	-0.276671
C	-1.1183010254	-2.0117802635	-0.0022514395	-0.057748
H	 1.0379381223	 1.5083203234	 0.8412816657	 0.258534
H	-0.4458014355	 0.9902141755	 1.563459283	 0.255942
H	-2.0534552022	-0.0910925386	 0.3999982552	 0.072908
H	-2.2558098209	 0.2931629173	-2.277900298	 0.101803
H	-2.7308996937	-2.1419467324	-3.0273437787	 0.098159
H	-2.2751957934	-3.7634003296	-0.9121262679	 0.084445
H	 0.2367675732	-3.6935785951	-0.4876807218	 0.105302
H	 0.367424469	-2.2793720675	-1.6476848079	 0.147557
H	-1.1986374763	-2.319184288	 1.0335158773	 0.082599
38.4209	129.2109	171.9765	185.6008	314.7412	374.9833	389.6903	476.8493	576.3446	627.9788	695.5031	736.7934	752.6583	783.5624	804.3521	833.3091	876.4654	924.7381	945.0549	986.255	997.2123	1024.4744	1054.7603	1074.746	1086.2694	1094.3938	1102.8677	1144.5979	1198.2833	1255.3528	1275.8222	1303.1368	1370.7178	1376.9509	1384.3364	1479.2264	1615.0349	1671.8266	1789.461	2994.3	3132.5316	3166.1416	3177.8528	3191.459	3217.3739	3230.7255	3599.7072	3736.8821
NC(=O)C1C=CC2CC12	NC(=O)[C@H]1C=C[C@H]2C[C@@H]12	
InChI=1S/C7H9NO/c8-7(9)5-2-1-4-3-6(4)5/h1-2,4-6H,3H2,(H2,8,9)	InChI=1S/C7H9NO/c8-7(9)5-2-1-4-3-6(4)5/h1-2,4-6H,3H2,(H2,8,9)/t4-,5-,6+/m0/s1
