21
gdb 52690	2.8134	0.87811	0.69958	2.0852	87.31	-0.2422	0.0554	0.2976	1651.4272	0.180541	-387.048456	-387.037887	-387.036942	-387.086683	36.205	
C	 0.1497527291	 1.4278045292	 0.0882198051	-0.497652
C	 0.0785117953	-0.0261555922	 0.044070252	 0.057705
C	 0.0210510165	-1.2292505695	 0.0186477859	 0.077624
C	-0.0548566004	-2.6898040079	-0.044647763	-0.181753
C	-1.5102438479	-3.1838829813	 0.0727899149	-0.394021
C	 0.6088127913	-3.2075273799	-1.3299303239	-0.002435
C	 2.1318107682	-2.9970692468	-1.4664991513	-0.087317
O	 2.3714574967	-4.4200028736	-1.519990624	-0.274151
C	 0.9678221385	-4.7105744358	-1.3785668361	-0.092615
H	 0.8180400769	 1.7701543104	 0.8861319926	 0.14809
H	 0.5254660114	 1.8376062215	-0.8559131628	 0.147308
H	-0.8362270399	 1.8694791249	 0.2705976508	 0.147704
H	 0.5123294664	-3.1001115727	 0.8044144111	 0.102572
H	-1.5489696255	-4.2778148932	 0.0508374918	 0.116275
H	-1.962234518	-2.8432917574	 1.007736869	 0.125761
H	-2.1146855292	-2.8002988645	-0.7548878251	 0.124223
H	 0.0400525587	-2.861120578	-2.1965022579	 0.083774
H	 2.4696960004	-2.4900855149	-2.3780022988	 0.100838
H	 2.6149097837	-2.5276045363	-0.599892166	 0.103768
H	 0.7548728178	-5.2729522656	-0.4583811309	 0.095454
H	 0.5760011999	-5.2745278263	-2.2339652234	 0.098847
16.4292	48.7129	65.1689	90.1837	148.7235	200.2092	239.5897	283.2683	313.3431	352.9604	396.8574	474.9117	546.9624	731.2236	775.5342	861.8994	891.2171	957.9652	977.5022	998.3476	1040.0497	1051.9792	1052.996	1061.4722	1072.8641	1114.0493	1150.0568	1163.1248	1170.7386	1212.2498	1262.5872	1288.8392	1310.0037	1336.1428	1367.1939	1393.1834	1407.0364	1415.2171	1478.8466	1479.0249	1491.9981	1499.3168	1512.0472	1537.2595	2367.5314	2989.3181	2995.6705	3014.8294	3025.8994	3037.6516	3041.6486	3054.0035	3080.4859	3086.2475	3086.4179	3108.8156	3120.6319
CC#CC(C)C1COC1	CC#C[C@@H](C)C1COC1	
InChI=1S/C8H12O/c1-3-4-7(2)8-5-9-6-8/h7-8H,5-6H2,1-2H3	InChI=1S/C8H12O/c1-3-4-7(2)8-5-9-6-8/h7-8H,5-6H2,1-2H3/t7-/m1/s1
