13
gdb 129564	3.38644	1.16916	1.08314	2.5856	63.49	-0.2923	-0.0515	0.2407	1107.8923	0.0907	-448.920029	-448.912221	-448.911277	-448.953459	27.198	
N	-0.0489371722	 1.4677502418	 0.1062054343	-0.497572
C	 0.0333114447	 0.012310959	-0.0002175846	-0.233384
C	 0.7143576765	-0.4691452663	-1.2269443519	 0.26125
N	 1.2336678812	-0.7887877083	-2.2085470663	-0.306606
C	 0.7047798114	-0.5500504228	 1.2224866299	 0.489386
N	 0.2525086292	-1.445562912	 2.0426075455	-0.312105
C	 1.2848244471	-1.5311759376	 2.9480938138	 0.042701
N	 2.3008360385	-0.7491141935	 2.7109677589	-0.096027
O	 1.9158963838	-0.0837596343	 1.5393285446	-0.201656
H	 0.8837016025	 1.8704544328	 0.0919944638	 0.261493
H	-0.549942807	 1.8417676958	-0.6938008706	 0.257058
H	-0.9803115538	-0.3990993504	 0.0008016363	 0.174964
H	 1.2730819681	-2.1912961543	 3.8027860764	 0.160497
43.0749	102.9643	178.2187	208.1317	270.2132	338.0228	408.1069	470.7686	587.8954	658.6474	737.022	791.8584	849.6444	915.5669	932.1117	958.2018	978.7316	1022.6457	1091.5708	1165.4743	1198.4098	1260.0135	1311.5488	1339.8752	1388.6504	1514.5202	1632.7697	1662.1433	2351.8804	3086.5809	3267.951	3503.1795	3586.3599
NC(C#N)C1=NC=NO1	N[C@@H](C#N)c1ncno1	
InChI=1S/C4H4N4O/c5-1-3(6)4-7-2-8-9-4/h2-3H,6H2	InChI=1S/C4H4N4O/c5-1-3(6)4-7-2-8-9-4/h2-3H,6H2/t3-/m0/s1
