14
gdb 31379	3.00159	1.43938	0.97886	3.8308	66.35	-0.249	-0.0377	0.2113	1127.152	0.101637	-473.873978	-473.866312	-473.865368	-473.906614	27.507	
C	 0.0587947473	 1.373464642	 0.0072591669	-0.232839
O	-0.0387431145	-0.0604510888	 0.0034596513	-0.23664
C	-1.2624902322	-0.5577642175	 0.0107941705	 0.520637
N	-2.3276621414	 0.1452929006	 0.02095065	-0.441201
C	-3.5832870029	-0.5008339987	 0.0282628482	 0.382547
O	-4.6184413554	 0.1262680711	 0.0377928029	-0.34511
C	-3.5268404956	-1.9736880508	 0.0233052737	-0.254571
C	-2.3447572828	-2.5912940571	 0.0126408776	 0.066728
O	-1.1623660795	-1.908910119	 0.0059324279	-0.201606
H	 1.1274734164	 1.5848426871	-0.000375872	 0.142819
H	-0.4286088328	 1.7900271773	-0.8765090183	 0.155352
H	-0.4147450397	 1.7843635643	 0.9011660992	 0.155323
H	-4.4508768516	-2.5356693698	 0.0284359473	 0.134115
H	-2.1733627052	-3.6596837506	 0.0080935348	 0.154444
103.8483	139.3027	153.7371	217.1237	230.7288	403.1963	457.1568	507.7681	543.5132	608.7289	736.9913	755.7543	780.5972	855.6229	928.1297	968.1814	980.6654	1034.3213	1081.3311	1183.3965	1195.1415	1231.58	1311.6092	1351.1227	1408.8469	1477.0168	1479.6532	1496.6409	1631.9025	1715.4072	1802.5324	3061.8739	3143.6566	3170.6073	3223.1953	3242.6562
COC1=NC(=O)C=CO1	COc1nc(=O)cco1	
InChI=1S/C5H5NO3/c1-8-5-6-4(7)2-3-9-5/h2-3H,1H3	InChI=1S/C5H5NO3/c1-8-5-6-4(7)2-3-9-5/h2-3H,1H3
