22
gdb 120760	3.26063	0.87153	0.76484	1.4631	83.51	-0.2243	0.0887	0.313	1587.7704	0.193097	-404.293679	-404.283934	-404.28299	-404.329122	35.451	
C	-0.3049248393	 1.5207218201	-0.1059494029	-0.381686
C	-0.2392815879	 0.0021993088	-0.2866618536	-0.164198
C	 0.9914623258	-0.4415623441	-1.0784575975	-0.13301
N	 1.0357884192	-1.9024181512	-1.1702792928	-0.099121
C	 0.3842500287	-2.5246825866	-2.3212184073	-0.259772
C	 1.8675757634	-2.5272130048	-2.2005158416	-0.028529
C	 2.7175096029	-1.7365250529	-3.1501112955	 0.046223
C	 2.7221656143	-2.0247235069	-4.5923305303	-0.174867
O	 2.0739130776	-0.860288897	-4.0776725013	-0.222776
H	 0.5716935174	 1.8951322625	 0.4346360685	 0.113109
H	-0.3411240304	 2.0362897482	-1.0720824614	 0.11618
H	-1.1938096001	 1.8143958117	 0.460537734	 0.112352
H	-0.2284124445	-0.4985330649	 0.6880976854	 0.104359
H	-1.140976342	-0.3493620129	-0.8041093575	 0.09697
H	 0.9951122903	 0.0478989936	-2.0641766971	 0.114606
H	 1.8994782888	-0.1167527004	-0.5534032812	 0.093991
H	-0.1882404636	-3.4260866766	-2.1190735234	 0.110395
H	-0.0312196436	-1.8679577497	-3.0832273041	 0.125491
H	 2.3674680906	-3.4332172252	-1.8560440007	 0.093044
H	 3.6312016726	-1.3210033296	-2.7211214096	 0.100751
H	 3.6183804931	-1.8364362153	-5.1810017341	 0.11792
H	 2.0566586966	-2.7938972968	-4.9805947061	 0.118569
67.6259	81.6778	99.2023	109.961	211.1644	228.3146	244.4689	313.6806	352.6095	431.1229	531.4004	616.2002	738.3657	760.8878	801.116	865.3117	888.0858	907.1736	912.5139	941.0841	1008.4091	1022.8538	1050.0658	1059.2914	1100.7941	1116.1536	1131.2795	1141.9625	1151.8935	1167.1613	1172.8774	1204.5079	1280.1642	1286.4422	1320.1742	1327.7507	1336.2804	1400.5444	1408.7522	1415.4971	1428.6768	1487.1695	1494.959	1501.0976	1506.4821	1517.3875	1522.4717	2992.0896	3026.5275	3030.2958	3038.0685	3067.9323	3086.9135	3091.1131	3097.1482	3097.9868	3101.6658	3103.9249	3177.8508	3185.3594
CCCN1CC1C1CO1	CCCN1C[C@H]1[C@H]1CO1	
InChI=1S/C7H13NO/c1-2-3-8-4-6(8)7-5-9-7/h6-7H,2-5H2,1H3	InChI=1S/C7H13NO/c1-2-3-8-4-6(8)7-5-9-7/h6-7H,2-5H2,1H3/t6-,7+,8?/m0/s1
