18
gdb 46358	3.4134	1.15106	0.99328	4.5221	73.43	-0.2442	0.0235	0.2677	1221.1229	0.148276	-439.077366	-439.068968	-439.068023	-439.112322	29.809	
O	-0.1469462332	-0.0055654607	-0.2231190895	-0.375527
C	-0.1369982702	 1.195523799	-0.1412319943	 0.412283
C	-1.1862202487	 2.3289303382	-0.0950152921	-0.368579
C	 0.0301601838	 3.2926143551	-0.0152471936	-0.175775
N	 0.8963880548	 2.1046375243	-0.0500701395	-0.083234
C	 2.3212444411	 1.956389652	-0.0557129567	-0.020366
C	 2.9702071212	 0.8093090123	 0.7598518803	-0.096709
O	 3.8153279734	 0.4678194101	-0.3579415511	-0.268845
C	 3.0322960602	 1.2763941854	-1.2558608358	-0.090699
H	-1.7974974312	 2.4122732345	-0.9950347557	 0.136124
H	-1.8305676495	 2.3092424617	 0.7854020392	 0.136329
H	 0.1535294344	 3.9585476111	-0.8758292526	 0.115828
H	 0.1119727793	 3.8733973591	 0.9094382796	 0.115588
H	 2.7611428038	 2.9274101644	 0.181505724	 0.100527
H	 3.5473163787	 1.0879023015	 1.6479460283	 0.104203
H	 2.2652977122	 0.0064483218	 1.0028296033	 0.134965
H	 2.351033819	 0.6727053393	-1.8690687911	 0.120001
H	 3.6555002809	 1.9057270508	-1.9006046928	 0.103886
20.3563	88.303	102.274	178.8554	193.5508	369.477	381.123	448.1278	565.3465	629.0753	778.8227	820.2071	843.0433	882.4706	898.5349	956.1105	1011.5634	1022.6941	1030.5158	1046.4093	1068.3534	1097.1435	1149.8934	1156.2939	1162.2426	1187.8885	1194.7913	1231.7578	1252.5618	1276.5239	1305.2293	1357.0513	1403.2958	1432.4085	1462.9879	1501.7015	1527.1733	1530.2496	1865.4758	3016.7462	3034.2658	3036.1138	3069.0949	3080.2522	3082.335	3090.5806	3098.3806	3147.8896
O=C1CCN1C1COC1	O=C1CCN1C1COC1	
InChI=1S/C6H9NO2/c8-6-1-2-7(6)5-3-9-4-5/h5H,1-4H2	InChI=1S/C6H9NO2/c8-6-1-2-7(6)5-3-9-4-5/h5H,1-4H2
