16
gdb 45939	2.27412	1.99133	1.16483	0.5574	71.51	-0.2592	-0.0386	0.2206	1020.2988	0.124822	-437.915943	-437.90821	-437.907266	-437.948436	29.106	
N	-0.0640498931	 1.2462828267	 0.3104499868	-0.555621
C	-0.0376333471	 0.0253289533	-0.0047146635	 0.351009
O	 1.0867553666	-0.6545669308	-0.4069280179	-0.251676
C	 0.8038067535	-2.0261839041	-0.6974341905	-0.209705
C	-0.6926571096	-2.2222822188	-0.4410859703	 0.319054
O	-1.3072277412	-3.2503744619	-0.5773553095	-0.325971
C	-1.1943158584	-0.8998680807	-0.0035632133	 0.115532
C	-2.314471929	-0.7907998631	 1.0301671205	-0.282171
C	-2.6012003406	-0.4340786877	-0.3764252685	-0.282136
H	 0.8608969517	 1.6689157055	 0.2288911019	 0.22755
H	 1.0552554257	-2.2463816376	-1.7406407924	 0.148664
H	 1.4012457156	-2.6760898634	-0.0488457041	 0.148616
H	-2.6856689192	-1.7371818361	 1.4078838977	 0.14397
H	-2.1872243045	 0.0092128899	 1.7499705916	 0.154447
H	-2.6740915698	 0.6149177005	-0.6383871888	 0.154454
H	-3.1722432106	-1.1318427316	-0.9790271196	 0.143984
75.2854	157.7159	212.6386	217.1107	241.8945	342.685	526.2686	564.443	578.6317	633.8092	693.9397	700.5992	799.5911	830.9972	871.4471	872.586	970.8984	976.5617	1005.2645	1028.5867	1066.095	1085.7197	1106.0769	1126.7331	1201.649	1213.178	1224.2169	1288.3006	1341.5061	1405.1891	1443.7303	1481.5817	1484.0816	1781.5584	1848.3393	3043.4303	3088.1105	3140.8825	3141.4671	3236.0831	3249.9754	3491.5795
N=C1OCC(=O)C11CC1	[NH][C]1OCC(=O)C21CC2	
InChI=1S/C6H7NO2/c7-5-6(1-2-6)4(8)3-9-5/h7H,1-3H2	InChI=1S/C6H7NO2/c7-5-6(1-2-6)4(8)3-9-5/h7H,1-3H2
