15
gdb 11255	5.05138	1.41166	1.23248	4.5537	67.28	-0.2675	-0.0134	0.2541	977.6145	0.118805	-362.67789	-362.670425	-362.669481	-362.709993	27.115	
C	 0.1646332305	 1.6169597854	-0.0526619665	-0.393131
C	-0.0568626934	 0.1179549267	 0.1251790403	 0.087369
O	 0.431617203	-0.5740444926	-1.0408467562	-0.268099
C	 1.2575624656	-1.6616754625	-0.6605797893	-0.062286
C	 1.4528590022	-1.5095547236	 0.8338073607	-0.09526
C	 0.6979940326	-0.5094439333	 1.2663352673	-0.086968
C	 0.6237171099	-2.957827385	-1.0023558028	 0.266562
N	 0.1439728349	-3.9763267049	-1.2619041071	-0.319776
H	 1.2322962553	 1.842068491	-0.1261747503	 0.125312
H	-0.3298741493	 1.9624622241	-0.9642769854	 0.136437
H	-0.254843102	 2.1672653437	 0.795629579	 0.119537
H	-1.1369350834	-0.0766176743	 0.225164377	 0.10147
H	 2.2032668069	-1.6071810585	-1.2187998427	 0.135428
H	 2.0968978588	-2.1614040696	 1.4076336679	 0.131595
H	 0.6055764385	-0.1657134865	 2.2886653282	 0.121809
62.3317	138.8057	209.1878	231.8749	297.2486	365.607	482.2315	518.609	582.8596	724.552	756.4495	813.6839	848.01	890.1514	924.9151	961.952	1005.3658	1023.2364	1085.5698	1115.8672	1131.6626	1140.7007	1272.6126	1327.06	1335.0991	1365.3266	1378.4312	1404.3041	1485.5873	1495.8169	1691.9163	2354.7986	2974.1577	3004.8396	3042.5149	3117.3296	3127.42	3216.804	3244.3475
CC1OC(C=C1)C#N	C[C@H]1O[C@@H](C=C1)C#N	
InChI=1S/C6H7NO/c1-5-2-3-6(4-7)8-5/h2-3,5-6H,1H3	InChI=1S/C6H7NO/c1-5-2-3-6(4-7)8-5/h2-3,5-6H,1H3/t5-,6+/m1/s1
