19
gdb 112435	2.01191	1.52011	0.96191	4.0443	71.58	-0.261	0.013	0.274	1244.5174	0.158775	-460.213774	-460.204679	-460.203735	-460.247873	33.554	
C	 0.2526738547	 1.4711073486	 0.1069532356	-0.393408
C	 0.3303152407	-0.057313457	 0.0629975208	-0.172537
C	 0.4699589955	-0.5915449122	-1.3603941174	 0.089326
O	 1.6817187947	-0.0923079865	-1.972897756	-0.226688
C	 2.6644225348	-1.0343901825	-1.9952221439	 0.430457
O	 3.7593812103	-0.8065004071	-2.4174395101	-0.332778
C	 2.1165385435	-2.3362544848	-1.4230519633	-0.405388
C	 0.5992355063	-2.1306137141	-1.471178991	 0.088895
O	-0.1416363606	-2.7503126117	-0.4410498828	-0.427236
H	 1.1458438122	 1.9218869078	-0.3337156982	 0.139029
H	-0.6167817687	 1.8381017261	-0.4500455021	 0.114728
H	 0.1624118367	 1.82678389	 1.1372684728	 0.115249
H	 1.1742643806	-0.4100480211	 0.6680276341	 0.100827
H	-0.5685366762	-0.50382171	 0.4985543938	 0.123298
H	-0.3548943959	-0.218136522	-1.9748311535	 0.09615
H	 2.4926256351	-3.189906008	-1.9887848512	 0.133356
H	 2.4534540394	-2.4371596395	-0.3852829196	 0.146339
H	 0.2223872922	-2.4390916722	-2.457196051	 0.087268
H	-0.1230670754	-3.7013260739	-0.5838802169	 0.293112
86.9802	108.0464	118.2615	191.392	232.646	258.5701	291.9644	365.7244	439.4029	504.134	518.5066	566.5391	647.6647	681.9671	781.9681	846.646	850.8873	924.3362	989.6389	1008.1313	1043.9545	1093.6182	1100.0093	1125.835	1135.9371	1168.4182	1184.8766	1248.6619	1255.7619	1293.8109	1322.4305	1360.7582	1383.8595	1405.9906	1413.5778	1432.1756	1467.6328	1477.6737	1497.9827	1508.8433	1886.0521	2992.8318	3036.4994	3038.8554	3061.1039	3065.5584	3090.0771	3105.906	3124.1547	3127.9355	3829.9723
CCC1OC(=O)CC1O	CC[C@H]1OC(=O)C[C@H]1O	
InChI=1S/C6H10O3/c1-2-5-4(7)3-6(8)9-5/h4-5,7H,2-3H2,1H3	InChI=1S/C6H10O3/c1-2-5-4(7)3-6(8)9-5/h4-5,7H,2-3H2,1H3/t4-,5-/m1/s1
