19
gdb 121580	3.30222	0.84521	0.69077	3.386	76.03	-0.2309	-0.0441	0.1869	1619.7515	0.157309	-456.365773	-456.355246	-456.354302	-456.402715	36.415	
C	 0.094924669	 1.3620297521	-0.263980703	-0.467706
C	-0.020112057	-0.1212023769	-0.0262863506	 0.379646
O	 0.9329959567	-0.8336837186	 0.2079679697	-0.31915
C	-1.4187259973	-0.7291393716	-0.0783020339	 0.257917
N	-2.4143231584	 0.06583646	-0.2393442504	-0.53669
N	-1.3924524144	-2.0822063878	 0.049299697	-0.314348
C	-2.5649004943	-2.9086060685	 0.2021251286	-0.137621
C	-2.1968714755	-4.3703118136	-0.0056371258	-0.093012
O	-1.1966789932	-4.6924798612	 0.9496557522	-0.415237
H	 1.1397869154	 1.6624701082	-0.1807863127	 0.130623
H	-0.3006122309	 1.6129409608	-1.2525461553	 0.154664
H	-0.5250823045	 1.9053199116	 0.4539329898	 0.15976
H	-3.3058250843	-0.4319821101	-0.2322465557	 0.208424
H	-0.5057392378	-2.4747840144	 0.3374873406	 0.265004
H	-3.0226054203	-2.7858626562	 1.1962383942	 0.117598
H	-3.3190467455	-2.6271164127	-0.5433955425	 0.112203
H	-3.0957711859	-4.9915525455	 0.1228921766	 0.098042
H	-1.8265750994	-4.509146611	-1.0319190243	 0.103533
H	-0.8286732426	-5.5535420344	 0.7324587056	 0.29635
40.5336	74.6165	84.1148	105.7772	114.9557	191.3467	264.8983	295.4365	310.9415	377.0843	417.052	486.5994	550.3559	601.1776	632.4239	703.009	813.8996	856.8326	883.9103	928.3554	977.3527	1047.6827	1068.2356	1104.1153	1122.8804	1191.3858	1202.3339	1222.3911	1270.0613	1302.7387	1331.027	1384.0124	1400.2013	1452.0646	1458.0811	1458.7293	1501.1248	1515.2795	1538.2761	1698.4142	1795.3822	2983.5559	2985.7551	3025.509	3048.0845	3057.1477	3122.8026	3161.1822	3463.4397	3588.0486	3839.8889
CC(=O)C(=N)NCCO	CC(=O)C(=N)NCCO	
InChI=1S/C5H10N2O2/c1-4(9)5(6)7-2-3-8/h8H,2-3H2,1H3,(H2,6,7)	InChI=1S/C5H10N2O2/c1-4(9)5(6)7-2-3-8/h8H,2-3H2,1H3,(H2,6,7)
