24
gdb 118248	4.97968	0.64327	0.59688	1.7891	87.69	-0.2311	0.086	0.3171	1935.5534	0.215541	-405.505468	-405.49468	-405.493735	-405.542098	38.551	
C	-0.0788074513	 1.3565212271	 0.0354682358	-0.226997
O	-0.0625770235	-0.0485331181	-0.0040480472	-0.232691
C	 0.6779151113	-0.561706052	-1.0906738374	-0.054466
C	 0.6019459962	-2.089154971	-1.0693323888	 0.005675
C	-0.8453451459	-2.57170283	-1.2226213931	-0.392711
C	 1.5451029097	-2.6638660242	-2.1355251431	-0.146995
N	 1.6451100453	-4.1181984936	-2.0533580316	-0.065575
C	 0.8324905833	-4.8956257528	-2.9841910509	-0.216605
C	 2.3025990931	-4.7771120294	-3.1762953452	-0.223361
H	 0.9353488571	 1.7756909474	 0.1365542908	 0.101688
H	-0.53599471	 1.787270725	-0.8700509482	 0.101564
H	-0.6707061403	 1.6542260275	 0.9046451705	 0.125797
H	 0.2750038694	-0.1713497816	-2.0433985478	 0.078438
H	 1.7283746592	-0.2277457355	-1.0241827933	 0.079664
H	 0.9763966264	-2.4182335534	-0.0920764739	 0.093436
H	-1.4825029306	-2.0911128251	-0.4769337774	 0.130254
H	-1.2400631122	-2.3201481139	-2.2154051157	 0.099306
H	-0.9166885312	-3.654287504	-1.0937541747	 0.123145
H	 1.2222211793	-2.3318278429	-3.1417308433	 0.074145
H	 2.5532279165	-2.2604079353	-1.9768559004	 0.098783
H	 0.3966137102	-5.8079649909	-2.5869252713	 0.116284
H	 0.196136873	-4.3527777756	-3.6813288238	 0.109951
H	 2.6458975296	-4.1562745333	-4.0029828801	 0.105965
H	 2.9645446753	-5.5998610146	-2.9209360701	 0.115308
55.9884	79.2584	89.0137	117.1437	130.2568	232.1156	236.9594	259.0569	289.4043	322.9793	370.1149	415.6821	453.7213	559.7265	770.7796	839.9366	854.2914	894.0288	928.3307	937.3831	965.1945	993.3138	1033.11	1041.8168	1112.3029	1120.6697	1129.4568	1156.3982	1163.2675	1169.1495	1180.6157	1186.4893	1201.4921	1229.7811	1265.5038	1293.634	1304.5139	1323.103	1384.3188	1394.4834	1409.9183	1426.2854	1480.7053	1485.1673	1486.6545	1493.2125	1497.6265	1503.4084	1506.6947	1521.8963	1528.1393	2911.4068	2933.1365	2961.2364	2967.0143	3007.8525	3026.5675	3034.4528	3046.3237	3090.4066	3097.1009	3105.1751	3111.1829	3133.0928	3173.6288	3188.5426
COCC(C)CN1CC1	COC[C@@H](C)CN1CC1	
InChI=1S/C7H15NO/c1-7(6-9-2)5-8-3-4-8/h7H,3-6H2,1-2H3	InChI=1S/C7H15NO/c1-7(6-9-2)5-8-3-4-8/h7H,3-6H2,1-2H3/t7-/m0/s1
