18
gdb 82426	2.70877	1.62318	1.25117	2.7406	71.17	-0.2315	0.0171	0.2486	1027.554	0.15025	-439.105863	-439.097994	-439.09705	-439.138354	30.759	
O	 0.0381775205	 1.3953487589	 0.0039534877	-0.436898
C	-0.0351719651	-0.0328645102	-0.0037844246	-0.010915
C	-1.4904872887	-0.4749741865	-0.0274423897	-0.024913
C	-2.6032251819	 0.504367985	-0.2953617641	-0.299114
C	-2.1750983156	-0.4549782495	-1.3748182013	-0.024959
C	-1.2961327648	 0.0222365186	-2.5212194425	-0.191405
N	 0.0460459889	-0.548309763	-2.3953485661	-0.306705
C	 0.7537539418	-0.5252992337	-1.2321692042	 0.376463
O	 1.9361094376	-0.8154705448	-1.1567569909	-0.388448
H	 0.9737799173	 1.6268210762	-0.0296160256	 0.294995
H	 0.4715606321	-0.4469250008	 0.8756651456	 0.090483
H	-1.709389748	-1.3117809032	 0.6261047662	 0.095468
H	-3.5538921722	 0.3307568124	 0.1959197467	 0.113062
H	-2.3290953082	 1.5464711829	-0.40477792	 0.139139
H	-2.8340595596	-1.2851845379	-1.6053989435	 0.090702
H	-1.7075025434	-0.2960660735	-3.4823833593	 0.114262
H	-1.2468168814	 1.1184582715	-2.5335441708	 0.12254
H	 0.5935522708	-0.7137992022	-3.2270804038	 0.246244
58.9747	168.1647	236.9116	262.3168	347.6276	403.865	420.3931	465.7634	468.4049	569.9898	598.557	725.5384	760.6315	809.3135	825.0063	863.7091	897.5051	941.8612	972.0266	1008.8591	1040.6033	1074.5361	1093.1847	1128.1322	1136.9203	1163.4398	1224.657	1239.6545	1285.4287	1316.6776	1324.2344	1375.3831	1383.1963	1406.5269	1427.0693	1472.2078	1486.0122	1510.482	1787.0379	3020.5015	3037.4785	3089.2126	3144.6714	3159.8936	3171.9484	3236.275	3613.2046	3798.354
OC1C2CC2CNC1=O	O[C@H]1[C@H]2C[C@H]2CNC1=O	
InChI=1S/C6H9NO2/c8-5-4-1-3(4)2-7-6(5)9/h3-5,8H,1-2H2,(H,7,9)	InChI=1S/C6H9NO2/c8-5-4-1-3(4)2-7-6(5)9/h3-5,8H,1-2H2,(H,7,9)/t3-,4-,5-/m0/s1
