16
gdb 125588	5.66409	0.98152	0.88903	1.9133	71.96	-0.2496	0.0018	0.2513	1295.3549	0.125618	-434.078316	-434.07029	-434.069346	-434.111538	28.833	
C	 0.293745856	 1.4501588729	-0.5417586167	-0.484202
C	 0.1145158021	 0.0510124772	-0.0577239809	 0.335077
N	-0.9010207529	-0.7116157571	-0.4401954106	-0.25705
N	-0.6683113977	-1.8642163514	 0.2347825312	-0.238281
C	 0.4547272923	-1.7551242718	 0.9716214072	 0.365549
N	 0.9813730759	-0.5557880438	 0.8122218997	-0.365222
C	 0.9616273286	-2.8516541526	 1.8182801275	-0.04135
C	 0.1404151384	-3.4312453139	 2.8977141529	-0.168812
O	 0.2891363408	-4.1035821427	 1.646555486	-0.238047
H	 1.2560093728	 1.5619903591	-1.0508962433	 0.139782
H	-0.5076976621	 1.7140094163	-1.2336065395	 0.14026
H	 0.2863742218	 2.1542204984	 0.2962354034	 0.138732
H	-1.2473140412	-2.6773120428	 0.1022373418	 0.285528
H	 2.0447578499	-2.902090059	 1.9049528881	 0.128468
H	 0.6334730859	-3.9053672919	 3.7443273445	 0.132226
H	-0.8466540406	-3.017367437	 3.0941445887	 0.127344
73.5984	106.9886	143.907	163.0305	276.0319	319.2229	423.693	475.2156	595.3849	652.2489	718.5377	732.539	755.3148	862.68	903.6781	998.5913	1003.3177	1021.0391	1070.7754	1080.9513	1091.5332	1149.9668	1160.71	1167.5487	1257.6388	1288.0555	1355.1433	1391.202	1417.8187	1471.4401	1478.2248	1480.6404	1521.025	1543.6338	1597.7713	3047.496	3092.8352	3103.602	3145.1747	3145.7895	3187.5437	3668.1783
CC1=NNC(=N1)C1CO1	Cc1n[nH]c(n1)[C@H]1CO1	
InChI=1S/C5H7N3O/c1-3-6-5(8-7-3)4-2-9-4/h4H,2H2,1H3,(H,6,7,8)	InChI=1S/C5H7N3O/c1-3-6-5(8-7-3)4-2-9-4/h4H,2H2,1H3,(H,6,7,8)/t4-/m1/s1
