21
gdb 35751	2.89771	1.41945	1.26736	0.7195	86.75	-0.2549	0.0538	0.3087	1099.7447	0.185161	-349.922477	-349.914665	-349.913721	-349.954461	32.166	
C	-0.0823824157	-1.2450654238	-0.3390509027	-0.48739
C	-0.0485959016	-0.057090268	-0.1527712918	 0.338971
C	-0.0059442027	 1.3849403679	 0.0791520488	-0.161836
C	-0.7008469656	 1.802500694	 1.4159107506	-0.221981
C	 0.2847182024	 1.9452321873	 2.5983844068	-0.200936
C	 1.6710026259	 2.3986616925	 2.1091166152	 0.003043
C	 1.5509207653	 3.2650307114	 0.8185802383	-0.245951
C	 1.4522750651	 1.9162380583	 0.0474485016	-0.007417
C	 2.2743709114	 1.2902289933	 1.2044197713	-0.216267
H	-0.1168628072	-2.2923168499	-0.5101946176	 0.191798
H	-0.5585761785	 1.8643225507	-0.7398176962	 0.099401
H	-1.1780043249	 2.7715085483	 1.2425277566	 0.103995
H	-1.50527055	 1.1028882941	 1.6545482996	 0.107605
H	-0.1271637249	 2.6629243857	 3.3172243667	 0.092125
H	 0.392489544	 0.9944332803	 3.1338652456	 0.102823
H	 2.2833214601	 2.7802009333	 2.9297922357	 0.056803
H	 0.732308369	 3.9856644475	 0.7338843143	 0.088568
H	 2.4921102186	 3.773440772	 0.5936102613	 0.096438
H	 1.8594611703	 1.8591359404	-0.964205093	 0.067407
H	 3.348113559	 1.4264352068	 1.0495014785	 0.090741
H	 2.0732675697	 0.2474248579	 1.4633404504	 0.102059
100.4512	144.7563	246.4637	291.3121	391.3325	406.6494	424.5586	508.5787	548.9577	616.5597	626.8899	644.8991	744.8439	804.4757	818.3136	827.7593	890.8172	906.8876	922.6081	949.4608	965.4088	985.6301	1035.7024	1065.68	1094.8064	1108.1733	1112.3647	1134.8564	1148.1614	1215.7554	1235.6146	1253.8733	1274.9665	1281.6568	1307.2107	1321.5086	1344.4229	1349.0979	1373.0166	1382.2402	1480.5269	1496.3538	1499.1166	1524.1677	2228.7848	3008.6712	3026.9284	3048.726	3053.1781	3055.8256	3066.1284	3075.0507	3083.0011	3101.2799	3106.9079	3110.3472	3504.5174
C#CC1CCC2CC1C2	C#C[C@H]1CC[C@@H]2C[C@H]1C2	
InChI=1S/C9H12/c1-2-8-4-3-7-5-9(8)6-7/h1,7-9H,3-6H2	InChI=1S/C9H12/c1-2-8-4-3-7-5-9(8)6-7/h1,7-9H,3-6H2/t7-,8-,9+/m0/s1
