20
gdb 78485	3.09725	1.4131	1.39501	2.1437	78.42	-0.2117	0.0873	0.299	1056.9997	0.17287	-403.098065	-403.090511	-403.089567	-403.129855	30.269	
C	-0.2499901825	 1.1466382333	 0.1996666861	-0.319463
N	 0.0680422527	-0.2579404493	-0.0412243811	-0.100262
C	 0.8162324228	-0.4830388407	-1.2866094987	-0.047896
C	 1.5136223104	-0.5380654448	 0.0397291736	-0.06548
C	 1.7233280343	-2.0620141306	-0.1175681119	 0.096168
O	 1.0768141405	-2.9595505628	 0.7425523125	-0.265458
C	-0.261707634	-3.1806060394	 0.2785344086	-0.062426
C	-0.2708342797	-2.9100787182	-1.247963301	-0.243426
C	 0.9492573874	-2.0057992974	-1.4759949324	-0.082105
H	 0.5163890758	 1.8478392785	-0.1724499219	 0.097062
H	-1.1995233125	 1.387962675	-0.2883748829	 0.123278
H	-0.3664171747	 1.3077386452	 1.2758405441	 0.127093
H	 0.8518752449	 0.2856711353	-2.0493873277	 0.088984
H	 2.1750624544	 0.1814205793	 0.5088341965	 0.086164
H	 2.7831459703	-2.3248819197	-0.1778138797	 0.079685
H	-0.5210373195	-4.2151016148	 0.527581887	 0.091119
H	-0.9511306808	-2.5038321758	 0.7901840367	 0.11379
H	-0.1512859609	-3.8436140875	-1.8054132337	 0.100597
H	-1.2084038418	-2.4446687579	-1.5609915046	 0.106584
H	 1.5435438829	-2.2776158677	-2.3490352293	 0.075992
133.1612	170.2519	217.6218	253.0481	282.6382	354.8004	463.9168	577.7948	634.1434	681.5629	744.1189	796.8364	819.6094	855.1265	874.0886	908.4659	915.432	937.7427	968.9573	994.5598	1016.4342	1067.9051	1085.7033	1107.2842	1118.946	1135.3875	1157.0766	1189.0137	1223.4089	1231.558	1235.7618	1258.717	1288.6547	1303.6551	1331.9334	1355.6184	1371.8659	1403.0192	1454.6609	1480.7764	1494.0695	1500.6537	1512.7788	2958.3251	3041.8801	3058.1136	3067.4695	3071.2222	3087.8436	3104.1526	3104.9255	3115.174	3174.0587	3189.176
CN1C2C1C1OCCC21	CN1[C@H]2[C@@H]1[C@H]1OCC[C@@H]21	
InChI=1S/C7H11NO/c1-8-5-4-2-3-9-7(4)6(5)8/h4-7H,2-3H2,1H3	InChI=1S/C7H11NO/c1-8-5-4-2-3-9-7(4)6(5)8/h4-7H,2-3H2,1H3/t4-,5+,6+,7-,8?/m0/s1
