14
gdb 20739	3.33452	2.3341	1.3846	4.8095	67.66	-0.2242	-0.0323	0.1919	840.7076	0.109028	-378.759488	-378.752628	-378.751684	-378.790451	25.765	
C	-0.0313226273	 1.4874592181	-0.0039026524	-0.454509
C	-0.007866231	-0.0085819984	-0.0251281995	 0.226258
N	-0.0422687967	-0.6051937588	-1.1821101274	-0.243035
N	-0.0202893527	-1.9521815039	-1.1834686951	-0.223229
C	 0.0347123725	-2.7235143665	-0.0704145855	 0.045592
C	 0.0724069391	-2.1570336684	 1.1622185579	-0.245863
C	 0.0535527176	-0.7133866359	 1.2840357296	 0.318114
O	 0.0837145778	-0.0902599571	 2.3407037734	-0.384506
H	 0.8589893423	 1.8689979026	 0.5066515771	 0.146972
H	-0.0805088831	 1.8871912399	-1.0175217465	 0.127305
H	-0.887021167	 1.8404471493	 0.5808283754	 0.147101
H	-0.0487862997	-2.3603738639	-2.103032625	 0.280738
H	 0.0454777262	-3.7937279165	-0.2469824461	 0.138323
H	 0.116415662	-2.7647692006	 2.0567442842	 0.120738
127.4041	150.6427	281.4546	292.852	449.9794	475.8097	477.3636	532.8781	589.8513	593.8357	720.2661	768.2496	856.4818	899.7535	963.3212	979.1213	1052.3052	1074.5515	1111.9761	1179.0374	1289.0756	1341.2119	1409.0871	1419.8942	1465.2766	1465.5675	1527.4845	1627.0428	1642.6842	1729.1249	3045.7212	3099.6418	3150.1162	3190.5167	3222.5682	3655.6114
CC1=NNC=CC1=O	Cc1n[nH]ccc1=O	
InChI=1S/C5H6N2O/c1-4-5(8)2-3-6-7-4/h2-3H,1H3,(H,6,8)	InChI=1S/C5H6N2O/c1-4-5(8)2-3-6-7-4/h2-3H,1H3,(H,6,8)
