15
gdb 49880	3.6283	1.25606	0.93855	2.665	72.22	-0.2519	-0.0137	0.2382	1171.0583	0.114477	-450.182397	-450.174295	-450.173351	-450.215716	29.109	
N	 0.1006123252	 1.2655903078	 0.0062967534	-0.415188
C	-0.0264413044	 0.0056051809	 0.0038723175	 0.088355
N	-1.2477669633	-0.6595437089	 0.012095289	-0.146356
C	-1.3144047812	-2.1186376572	 0.0086959012	-0.250559
C	-2.8060564652	-2.411669071	 0.0200521641	 0.396261
N	-3.2865236357	-3.5842216143	 0.0207693505	-0.535347
N	-3.4146003327	-1.1707217316	 0.0284764608	-0.41128
C	-2.5263055723	-0.0837641745	 0.0240192221	 0.502433
O	-2.8404743439	 1.072848399	 0.0298577519	-0.357244
H	 1.0895489063	 1.5097628322	-0.0011497608	 0.232185
H	 0.7987888978	-0.718377111	-0.0048664464	 0.097526
H	-0.8495329949	-2.5502705627	-0.883813788	 0.155101
H	-0.8351195658	-2.5550537983	 0.8912042113	 0.155105
H	-4.307176827	-3.5804636083	 0.0291534426	 0.218031
H	-4.4086020028	-1.0077594521	 0.0370662208	 0.270977
67.5702	108.8756	153.3228	199.6022	211.5339	361.3755	459.6036	507.71	540.8998	548.8365	636.1742	742.3795	756.3913	803.4303	816.2635	861.6259	909.8936	1025.4123	1064.1741	1108.502	1123.2953	1194.9534	1204.2434	1250.5268	1300.0489	1360.1316	1386.3033	1425.7512	1437.4134	1502.7772	1727.5834	1777.0031	1884.2407	3029.7655	3046.1518	3084.2307	3472.4883	3502.2193	3656.944
N=CN1CC(=N)NC1=O	[NH][CH]N1C[C]([NH])NC1=O	
InChI=1S/C4H6N4O/c5-2-8-1-3(6)7-4(8)9/h2,5H,1H2,(H2,6,7,9)	InChI=1S/C4H6N4O/c5-2-8-1-3(6)7-4(8)9/h2,5H,1H2,(H2,6,7,9)
