22
gdb 62702	2.7672	1.65708	1.46342	1.672	83.88	-0.2273	0.0793	0.3066	1034.0305	0.196132	-367.192986	-367.184975	-367.184031	-367.224722	32.976	
C	-0.228865921	 1.6109136711	 0.0327051829	-0.464529
C	 0.0097933746	 0.1014264473	-0.0016406644	 0.326052
C	-1.290035858	-0.6416033467	 0.3338609385	-0.436564
C	 0.6559351609	-0.5269844738	-1.2384210737	-0.078482
C	 2.1384518224	-0.425419122	-1.2873971694	-0.027323
C	 2.8982126942	 0.6280131828	-0.4952296618	-0.252695
C	 2.4181813431	 0.3794454297	 0.9583900911	-0.226332
C	 1.2065648642	-0.5334532383	 0.7826914761	-0.034978
N	 1.528561193	-1.4469513592	-0.4045494037	-0.155347
H	 0.6671514119	 2.1907105828	-0.1975991049	 0.115123
H	-0.9964626747	 1.8875562084	-0.6993574746	 0.114064
H	-0.5907303861	 1.9282882446	 1.0177816644	 0.11277
H	-2.0807671446	-0.3915994457	-0.3829347492	 0.108245
H	-1.1421680833	-1.7250452684	 0.311551952	 0.13101
H	-1.6471505433	-0.364888843	 1.332425648	 0.109064
H	 0.0934164985	-0.9117680665	-2.0871667659	 0.079452
H	 2.6078808823	-0.8429575224	-2.1739164741	 0.088004
H	 3.9763646915	 0.4719685681	-0.5954726076	 0.105319
H	 2.6902540162	 1.6428247907	-0.8460463676	 0.108601
H	 3.1902736119	-0.1413042449	 1.5333975061	 0.10715
H	 2.1735302553	 1.3003793404	 1.495321569	 0.102731
H	 0.933501551	-1.0947990149	 1.677811309	 0.068665
185.0311	199.3759	222.339	244.3136	270.0412	341.0598	352.6685	429.3881	513.696	601.8223	662.665	722.4172	756.5583	795.8692	826.5525	840.229	897.2196	921.0948	941.4032	952.2528	978.3815	993.3483	1006.9061	1035.09	1059.5376	1069.1006	1103.4253	1147.9439	1188.7713	1206.9636	1227.3854	1230.8355	1251.9621	1268.7882	1279.7656	1321.7008	1333.1684	1376.7305	1399.5666	1408.2246	1424.2636	1477.5334	1486.7014	1489.8782	1501.2454	1510.515	1514.5681	3022.8875	3030.693	3048.6575	3057.0068	3082.1822	3083.4072	3088.4777	3095.7476	3101.6961	3111.0862	3121.8924	3127.7576	3152.1738
CC1(C)C2C3CCC1N23	CC1(C)[C@H]2[C@H]3CC[C@@H]1N23	
InChI=1S/C8H13N/c1-8(2)6-4-3-5-7(8)9(5)6/h5-7H,3-4H2,1-2H3	InChI=1S/C8H13N/c1-8(2)6-4-3-5-7(8)9(5)6/h5-7H,3-4H2,1-2H3/t5-,6+,7-,9?/m1/s1
