20
gdb 69507	2.4764	1.62311	1.34875	1.7369	79.13	-0.2215	0.0779	0.2994	1066.904	0.169904	-403.094826	-403.085888	-403.084944	-403.127645	34.924	
C	-0.0359859912	 1.5238623197	 0.1169854421	-0.497725
C	-0.0340152367	 0.0266015209	 0.0123375009	 0.27192
C	 1.1766035139	-0.7920340324	-0.4120298004	-0.388323
C	 0.6276189357	-0.9984745095	 0.9654560396	 0.349845
O	 1.4147955588	-0.7676510631	 2.075849787	-0.464705
C	-0.6221566773	-1.8505147894	 0.9312648678	 0.251
C	-0.7095795169	-3.3458001515	 0.9897276722	-0.51116
N	-1.7198219991	-0.9658863756	 1.4277839708	-0.394643
C	-1.256963774	-0.8603712186	 0.0121633824	-0.178352
H	 0.921343422	 1.8864826338	 0.506246019	 0.121873
H	-0.2007352362	 2.0037233413	-0.8549854097	 0.115728
H	-0.8254306505	 1.8580238324	 0.798175055	 0.128952
H	 1.1013190015	-1.5646347663	-1.1738772807	 0.101663
H	 2.1083784407	-0.2346239567	-0.434863647	 0.12018
H	 0.8234830917	-0.474077915	 2.7800904389	 0.292329
H	-0.5371249003	-3.7122433277	 2.0082313861	 0.130017
H	-1.6941784155	-3.7021359719	 0.6680976513	 0.115815
H	 0.044268726	-3.8044121143	 0.3412043098	 0.130084
H	-2.5758715619	-1.524455238	 1.4228555604	 0.217943
H	-1.9373426807	-1.0710406181	-0.8063640254	 0.08756
148.5026	174.6102	194.1003	195.7061	211.8933	242.3253	310.503	408.5467	436.2561	466.2307	527.4929	575.1037	607.2104	665.9973	761.4434	764.8439	808.5592	872.9031	927.3699	952.4393	975.0638	987.1447	1000.4441	1055.8516	1071.8273	1095.1054	1105.782	1127.2716	1163.9349	1217.7021	1254.5447	1293.0492	1337.8947	1372.0416	1408.1979	1409.4087	1418.1228	1444.6086	1483.5836	1488.7911	1497.4732	1499.3944	1507.6697	3023.5419	3026.049	3083.2741	3088.0314	3098.1873	3100.2807	3105.6163	3168.8291	3197.6301	3442.9377	3777.7743
CC12CC1(O)C1(C)NC21	C[C@@]12C[C@]1(O)[C@@]1(C)N[C@@H]21	
InChI=1S/C7H11NO/c1-5-3-7(5,9)6(2)4(5)8-6/h4,8-9H,3H2,1-2H3	InChI=1S/C7H11NO/c1-5-3-7(5,9)6(2)4(5)8-6/h4,8-9H,3H2,1-2H3/t4-,5-,6-,7+/m0/s1
