18
gdb 58707	1.93964	1.79146	1.15618	3.0805	71.93	-0.2794	-0.0008	0.2786	1107.4993	0.14641	-439.079766	-439.070571	-439.069626	-439.11377	33.734	
C	-0.0264928571	 1.5559521372	 0.1916393008	-0.425601
C	-0.0421500253	 0.034625211	 0.0419689941	 0.070907
O	 0.6108536802	-0.60685801	 1.1209403673	-0.435812
C	-1.4783729394	-0.5269068691	-0.0646608502	 0.265026
C	-1.628473884	-2.0725234764	-0.0019051779	-0.328362
C	-2.4493216302	-1.801258082	 1.2712504903	-0.076208
O	-2.1624988384	-0.3780296956	 1.2052554258	-0.323359
C	-2.2271578208	 0.0986491756	-1.1635458974	 0.26554
N	-2.7991302249	 0.5756741539	-2.047561342	-0.340035
H	 1.0009147032	 1.8936022159	 0.3455607504	 0.131027
H	-0.431098026	 2.0499325348	-0.6957258833	 0.145736
H	-0.6277340962	 1.8596198768	 1.0553826771	 0.133186
H	 0.5028551615	-0.2649816871	-0.8607520529	 0.108493
H	 0.1114884251	-0.3720374611	 1.9137690883	 0.288993
H	-2.1583099683	-2.5324767037	-0.8345116268	 0.133488
H	-0.6747212248	-2.5676725065	 0.1731047317	 0.144048
H	-3.5241657881	-1.991077341	 1.1836179612	 0.124346
H	-2.0741659965	-2.2419595627	 2.1995158234	 0.118586
82.4055	92.2965	147.5173	196.0889	220.6422	263.0081	287.1189	365.7036	420.2025	465.9012	507.2479	544.3063	571.2732	660.5929	775.1005	863.7295	899.2017	923.6809	956.2669	988.2987	1003.6829	1068.7542	1080.7007	1135.5994	1160.4331	1171.6156	1196.3941	1234.6302	1272.7364	1305.5928	1334.4361	1354.2054	1405.7248	1425.2374	1476.3866	1493.7341	1498.2923	1527.258	2349.2405	3042.972	3043.6192	3053.8294	3093.1851	3106.2531	3118.6591	3133.9049	3172.5255	3776.2718
CC(O)C1(CCO1)C#N	C[C@@H](O)[C@]1(CCO1)C#N	
InChI=1S/C6H9NO2/c1-5(8)6(4-7)2-3-9-6/h5,8H,2-3H2,1H3	InChI=1S/C6H9NO2/c1-5(8)6(4-7)2-3-9-6/h5,8H,2-3H2,1H3/t5-,6+/m1/s1
