12
gdb 24863	2.59481	1.87075	1.24261	2.4242	64.1	-0.288	-0.1092	0.1788	936.1069	0.078302	-468.827696	-468.820629	-468.819685	-468.860003	25.384	
N	-0.3194292119	 1.3217548131	 0.0860000992	-0.483616
C	-0.0246181937	 0.1176428672	-0.1511513494	 0.360901
O	 1.185095735	-0.2656705479	-0.6699510599	-0.243951
C	 1.4751323804	-1.5963656087	-1.0146468905	 0.436759
O	 2.5044434006	-2.0776089477	-0.6661438772	-0.280738
N	 0.5703865652	-2.1670648983	-1.9060106742	-0.245771
C	-0.6608728834	-2.2909340539	-1.6090747188	 0.082717
N	-1.2903866872	-2.0076582229	-0.394797555	-0.19679
C	-1.0002422063	-0.9434381607	 0.2454716735	-0.005206
H	 0.4180284012	 1.9557139321	-0.2282923015	 0.248926
H	-1.3295343045	-2.7269864059	-2.3504801585	 0.156518
H	-1.5345923854	-0.7318009965	 1.1709057423	 0.170252
54.9038	114.2602	251.4219	299.0744	388.4785	431.9124	477.3165	554.7384	656.9067	696.9612	713.8318	846.8311	860.9285	911.0957	929.4902	969.7078	1009.1919	1043.4866	1109.4985	1116.2886	1336.3401	1380.5221	1414.5601	1690.7786	1707.3585	1737.6427	1888.6795	3148.5363	3152.1025	3477.8093
N=C1OC(=O)N=CN=C1	[NH][C]1OC(=O)N=CN=C1	
InChI=1S/C4H3N3O2/c5-3-1-6-2-7-4(8)9-3/h1-2,5H	InChI=1S/C4H3N3O2/c5-3-1-6-2-7-4(8)9-3/h1-2,5H
