16
gdb 93321	2.08649	1.73328	1.1244	4.2203	69.62	-0.2667	-0.0545	0.2122	1086.6224	0.123454	-437.919107	-437.910656	-437.909712	-437.95261	30.558	
C	-0.1526855081	 1.5370150343	-0.0972644758	-0.419343
C	 0.0587038	 0.0436732084	 0.038302652	 0.118145
O	 0.8573445479	-0.4158831673	-1.0546753562	-0.250482
C	 1.3074473014	-1.7188686497	-0.7599694961	-0.182546
C	 1.4028062634	-1.8058404067	 0.7640208533	 0.371558
O	 1.8004002451	-2.7205851479	 1.4210195648	-0.271065
C	 0.8150464055	-0.4584968922	 1.2971344541	-0.291354
C	 1.8986104155	 0.4212926475	 1.7154388191	 0.295361
N	 2.7636535755	 1.1177705176	 2.0367245415	-0.322529
H	 0.8013047822	 2.0680635091	-0.0583812547	 0.157378
H	-0.6354585217	 1.7513431613	-1.0539834738	 0.13785
H	-0.7949853775	 1.9074008955	 0.7067673207	 0.128996
H	-0.9132491123	-0.4776689806	 0.025796067	 0.087417
H	 0.6080149332	-2.4958796106	-1.1103742654	 0.131858
H	 2.2789627042	-1.8916411299	-1.2313558578	 0.157346
H	 0.1596434956	-0.6606781987	 2.1478486773	 0.15141
60.5937	133.4682	167.4997	177.1985	225.9626	291.0444	415.1594	432.2073	456.521	517.7459	581.8609	633.9769	692.291	811.4998	830.1766	892.7442	941.9866	1004.9314	1050.5572	1078.0978	1108.903	1161.29	1172.5805	1185.37	1225.5721	1294.7588	1328.4759	1368.6304	1385.5378	1420.4435	1473.4396	1483.399	1498.2051	1881.9867	2353.4843	2962.7723	2980.0703	3053.1006	3093.7065	3096.315	3128.1029	3138.5194
CC1OCC(=O)C1C#N	C[C@H]1OCC(=O)[C@H]1C#N	
InChI=1S/C6H7NO2/c1-4-5(2-7)6(8)3-9-4/h4-5H,3H2,1H3	InChI=1S/C6H7NO2/c1-4-5(2-7)6(8)3-9-4/h4-5H,3H2,1H3/t4-,5+/m1/s1
