20
gdb 93151	2.40067	1.56308	1.04378	3.419	80.71	-0.2376	0.0031	0.2407	1178.2678	0.172631	-403.1886	-403.179886	-403.178941	-403.222354	33.271	
C	-0.0004509748	 1.5830962482	-0.0205971633	-0.391701
C	 0.091225054	 0.0485941415	 0.0061255433	-0.066012
C	 0.660426236	-0.4924510803	-1.323734144	-0.270199
C	 0.5867996777	-1.990825683	-1.4464673498	-0.058935
C	 1.3408759945	-2.7871495767	-0.6941546797	-0.051928
C	 2.3260593249	-2.2076156812	 0.2914561914	-0.2234
N	 1.7143045009	-1.3910523202	 1.3410193317	-0.312772
C	 0.7882090681	-0.3825615227	 1.3123912027	 0.391028
O	 0.4835076635	 0.1706581437	 2.3577397964	-0.379139
H	 0.9853227423	 2.0304341606	-0.192134528	 0.112369
H	-0.6637470042	 1.9119541398	-0.8264181867	 0.105125
H	-0.3802696533	 1.9523049664	 0.9319410921	 0.147943
H	-0.9289374596	-0.3449541216	 0.1152639173	 0.1086
H	 0.106730726	-0.0201443686	-2.1409512225	 0.103261
H	 1.7011902271	-0.1538178232	-1.4280616905	 0.1106
H	-0.1310003422	-2.4135528234	-2.1442341477	 0.096253
H	 1.2680893043	-3.8677168982	-0.7663167695	 0.098138
H	 2.8589204224	-3.0114175407	 0.8046255288	 0.115762
H	 3.0914064547	-1.6289607301	-0.2492640562	 0.121377
H	 2.0605293777	-1.5309181903	 2.2794478342	 0.24363
38.1468	121.0429	219.8604	221.6301	292.1977	310.9959	319.9676	389.362	453.3531	525.9778	564.7257	598.4398	654.7194	701.9712	757.2079	793.3106	899.0574	905.9909	924.9729	989.6552	998.6595	1040.3923	1059.8077	1102.4713	1122.0626	1149.8423	1204.7842	1246.3474	1285.317	1295.0795	1316.0003	1349.0459	1361.743	1396.6338	1404.4029	1411.1946	1476.4437	1485.9437	1494.4747	1506.5137	1508.776	1724.3296	1752.5287	2974.1196	3003.1399	3018.7379	3037.2782	3073.7993	3093.1597	3099.5722	3153.4859	3158.9748	3185.4029	3603.3979
CC1CC=CCNC1=O	C[C@H]1CC=CCNC1=O	
InChI=1S/C7H11NO/c1-6-4-2-3-5-8-7(6)9/h2-3,6H,4-5H2,1H3,(H,8,9)	InChI=1S/C7H11NO/c1-6-4-2-3-5-8-7(6)9/h2-3,6H,4-5H2,1H3,(H,8,9)/t6-/m0/s1
