16
gdb 9076	5.99391	0.91679	0.83976	3.4244	68.46	-0.2763	0.0029	0.2792	1308.9507	0.127518	-383.729828	-383.720753	-383.719808	-383.764412	31.321	
C	 0.1588701438	 1.4704866917	 0.1981314131	-0.398165
C	 0.0265534218	-0.0545667932	 0.0298156852	-0.153843
C	 0.764364336	-0.8283556572	 1.1382124379	-0.083299
O	 2.1649605355	-0.548392138	 1.0711335501	-0.179619
C	 2.7818330132	-0.0730832599	 2.1713523005	 0.171902
O	 3.9484426714	 0.1747140002	 2.2001293426	-0.270774
C	-1.3712508115	-0.4792319438	 0.0100203316	 0.311152
C	-2.520468322	-0.8307011261	 0.0278769954	-0.462338
H	 1.2115134402	 1.7633300566	 0.1834510808	 0.138823
H	-0.3560141206	 1.9896162572	-0.6133500051	 0.135579
H	-0.2865590984	 1.7962038117	 1.1434606375	 0.125203
H	 0.4934117382	-0.340017316	-0.9220499771	 0.127282
H	 0.364988822	-0.5529173114	 2.1225535923	 0.119917
H	 0.6315680691	-1.904784311	 0.9999729731	 0.134639
H	 2.0902573073	 0.0565254203	 3.0268573858	 0.080882
H	-3.536701446	-1.1394100012	 0.0252582563	 0.20266
45.1868	67.2659	131.4306	169.0025	212.269	254.0717	280.114	375.8143	401.1335	503.3153	528.9817	638.7742	657.0129	684.1328	825.5029	921.5879	939.1699	1043.1839	1045.6168	1086.2818	1117.389	1134.7257	1203.1149	1292.6013	1312.9302	1350.2168	1392.9987	1411.1367	1434.0236	1495.2045	1498.5559	1505.7769	1869.0928	2237.8654	2947.248	3022.5251	3033.3302	3047.5306	3098.2261	3121.6789	3134.4072	3503.4774
CC(COC=O)C#C	C[C@@H](COC=O)C#C	
InChI=1S/C6H8O2/c1-3-6(2)4-8-5-7/h1,5-6H,4H2,2H3	InChI=1S/C6H8O2/c1-3-6(2)4-8-5-7/h1,5-6H,4H2,2H3/t6-/m1/s1
