23
gdb 39477	2.20915	1.66428	1.16557	0.4477	90.85	-0.2187	0.0191	0.2378	1165.5958	0.209291	-351.146148	-351.137918	-351.136974	-351.178584	33.558	
C	-0.1370646871	 1.2914095348	-0.4879247195	-0.300848
C	 1.2766194028	 0.9076839561	-0.1500543963	-0.009928
C	 2.0347676391	 1.4564087233	 1.0652103414	-0.231132
C	 2.3321517653	 0.4618491746	 2.210805014	-0.178107
C	 1.3641819357	 0.5811611116	 3.3998654168	-0.181195
C	-0.1262261172	 0.5790555159	 3.0024899817	-0.257302
C	-0.5481729422	-0.6628762463	 2.2645375164	-0.075147
C	-0.3951945857	-0.9395583714	 0.9661050567	-0.045064
C	 0.1817312136	-0.1609434927	-0.1642930604	-0.042346
H	-0.6923231281	 1.8480070085	 0.259408954	 0.11914
H	-0.3998066987	 1.546695	-1.5093772753	 0.107755
H	 1.9228645176	 0.806088713	-1.0181148095	 0.085962
H	 2.9839219221	 1.8458789003	 0.6824698004	 0.095979
H	 1.5147823061	 2.332416809	 1.4703671634	 0.098546
H	 2.314107381	-0.5595575125	 1.8182433419	 0.107094
H	 3.3484566978	 0.628464197	 2.5859271205	 0.087806
H	 1.557964931	-0.2361336778	 4.1059751421	 0.091333
H	 1.570850032	 1.5140760946	 3.9411202853	 0.08954
H	-0.7309973938	 0.6836786471	 3.9102871739	 0.094338
H	-0.333066085	 1.4723023113	 2.4041596768	 0.102181
H	-0.998253649	-1.4411394036	 2.8777600401	 0.079521
H	-0.7526811298	-1.9168139569	 0.6451771491	 0.079785
H	 0.2488167524	-0.7807911661	-1.0539211636	 0.082087
90.2271	193.3411	210.6671	255.8015	293.8832	313.299	359.9591	459.8779	517.3489	587.7701	677.723	699.0803	739.726	771.853	787.0708	830.2825	861.7962	880.9839	919.553	952.3148	995.9051	1002.3467	1016.6158	1044.926	1056.0282	1062.7882	1111.6504	1120.015	1145.7899	1157.9568	1202.0786	1204.4521	1263.7155	1270.9214	1301.4236	1322.6936	1342.2126	1362.0689	1378.015	1383.547	1404.1317	1422.6599	1443.8571	1481.0644	1484.9038	1489.9817	1493.8024	1511.4425	1724.3495	3011.3977	3029.4418	3033.8778	3042.2914	3049.7079	3062.682	3075.6639	3084.5543	3116.9685	3126.3694	3127.4992	3139.8911	3152.3351	3211.6849
C1C2CCCCC=CC12	C1[C@H]2CCCCC=C[C@@H]12	
InChI=1S/C9H14/c1-2-4-6-9-7-8(9)5-3-1/h3,5,8-9H,1-2,4,6-7H2/b5-3-	InChI=1S/C9H14/c1-2-4-6-9-7-8(9)5-3-1/h3,5,8-9H,1-2,4,6-7H2/b5-3-/t8-,9+/m0/s1
