19
gdb 76519	2.96927	1.20624	1.19607	1.9062	76.44	-0.227	0.0318	0.2588	1144.831	0.159369	-423.009551	-423.001144	-423.0002	-423.042546	32.761	
O	 0.1388949185	 1.3837871923	 0.0559278522	-0.431415
C	 0.0516977777	-0.0061472154	-0.0012224807	 0.043998
C	-0.5119222474	-0.7216817377	 1.2017866668	-0.031666
O	-0.9750062588	 0.1091698632	 2.2407907873	-0.428683
C	-1.310369993	-0.6791497865	-0.0764390789	 0.263975
C	-2.5746357797	 0.1823527423	-0.1966853774	-0.337007
C	-3.3980370367	-0.5721151783	-1.2107884721	-0.058371
C	-2.8290645149	-1.7120371801	-1.595608614	-0.061282
C	-1.5058133171	-1.9557202228	-0.9102699347	-0.346208
H	-0.2759226477	 1.6421577406	 0.8912294038	 0.284208
H	 0.8788760027	-0.4430363878	-0.5550571209	 0.096012
H	-0.0994914844	-1.6767473876	 1.5254776528	 0.086818
H	-0.2560390532	 0.2172239459	 2.8735585934	 0.29614
H	-3.0999060377	 0.2860180935	 0.7613360805	 0.117955
H	-2.3305860334	 1.1994460767	-0.5286687611	 0.117104
H	-4.3537476804	-0.2007880494	-1.5644420163	 0.090328
H	-3.2467038159	-2.4130166348	-2.3098805071	 0.089816
H	-0.6891461482	-2.1109134913	-1.6290206393	 0.105115
H	-1.5378402706	-2.8598066629	-0.2846462443	 0.103163
63.4398	163.3864	194.7736	258.6319	271.3974	293.236	387.3711	410.7291	506.1919	519.3563	599.8994	656.212	704.4696	770.8313	799.8828	836.2944	854.3916	948.1288	966.9401	980.0561	987.8683	1019.194	1042.6521	1071.3683	1119.4624	1131.1231	1149.7455	1175.8594	1194.1332	1214.824	1244.0743	1275.6713	1298.8941	1322.8226	1349.255	1368.1222	1408.8651	1468.1608	1486.8685	1495.7373	1695.0927	2994.8785	3019.2232	3021.4154	3046.7191	3103.2831	3140.9657	3180.9767	3206.519	3735.9783	3799.3262
OC1C(O)C11CC=CC1	O[C@H]1[C@@H](O)[C@]21CC=CC2	
InChI=1S/C7H10O2/c8-5-6(9)7(5)3-1-2-4-7/h1-2,5-6,8-9H,3-4H2	InChI=1S/C7H10O2/c8-5-6(9)7(5)3-1-2-4-7/h1-2,5-6,8-9H,3-4H2/t5-,6+
