16
gdb 98828	3.05766	1.18723	0.86919	2.4351	68.18	-0.2606	-0.0308	0.2298	1266.7266	0.122955	-475.063611	-475.054559	-475.053615	-475.09829	31.331	
O	 0.0050861194	 1.4129633415	 0.0110425927	-0.394192
C	-0.0138971618	 0.0099323676	 0.0030524153	-0.192185
C	-1.4658393412	-0.449389088	 0.0117746238	 0.388579
O	-2.4291087421	 0.2753911961	 0.0232882766	-0.31126
N	-1.6209329248	-1.8353808221	 0.0056031876	-0.148739
C	-2.8607476939	-2.632085799	 0.0112083093	-0.166304
C	-1.9691368991	-3.9071978024	-0.0011267203	-0.377562
C	-0.767320691	-2.9459400696	-0.0068845671	 0.428252
O	 0.4288015573	-3.0283410919	-0.0161013817	-0.348286
H	 0.9251828801	 1.6919983226	 0.0022216126	 0.295549
H	 0.4753385672	-0.4271553593	-0.8818470307	 0.128317
H	 0.4891887728	-0.4372996993	 0.8750426453	 0.128344
H	-3.4621549602	-2.4797904502	 0.9093518713	 0.138301
H	-3.4755305359	-2.4717185451	-0.8764121875	 0.138277
H	-2.0287391588	-4.5372177311	 0.8878178859	 0.146499
H	-2.0429108979	-4.5298704596	-0.8941695732	 0.14641
66.1368	84.8226	126.0152	141.1652	201.1558	219.9289	277.182	366.4796	400.9363	538.2133	585.361	605.4063	767.8439	769.6027	803.8292	924.8819	999.5219	1022.0434	1051.4316	1052.4469	1142.8366	1155.436	1175.2761	1188.4549	1222.3355	1240.1498	1258.6824	1321.901	1358.2077	1456.3897	1461.5569	1487.5614	1521.0412	1816.5584	1879.2508	2982.7621	3006.5518	3079.1699	3092.8362	3130.2063	3150.847	3838.6077
OCC(=O)N1CCC1=O	OCC(=O)N1CCC1=O	
InChI=1S/C5H7NO3/c7-3-5(9)6-2-1-4(6)8/h7H,1-3H2	InChI=1S/C5H7NO3/c7-3-5(9)6-2-1-4(6)8/h7H,1-3H2
