19
gdb 100496	4.69643	0.5448	0.51077	2.8058	83.36	-0.2488	-0.0291	0.2198	2137.4737	0.15452	-422.993914	-422.982834	-422.98189	-423.033227	36.832	
C	-0.4727978003	 1.1943612356	-0.0729102388	-0.231546
O	-0.137593778	-0.1710983987	 0.0348740101	-0.241852
C	 0.8348824031	-0.4540654709	 1.0363624606	-0.03982
C	 0.2220821908	-0.4761120704	 2.4466656153	-0.392477
C	 1.4552409336	-1.7388094144	 0.7102581707	 0.071656
C	 1.9831552129	-2.7914348744	 0.4612358899	 0.080543
C	 2.5855495805	-4.0892850675	 0.1970519651	-0.417701
C	 2.065578718	-5.176803105	 1.1405011772	 0.171632
O	 2.75347725	-6.0510783903	 1.5915910739	-0.230344
H	 0.4163214106	 1.8175722778	-0.2578556308	 0.106399
H	-1.14996441	 1.2869022155	-0.9252533891	 0.132004
H	-0.9847407295	 1.5805373517	 0.8204944656	 0.107888
H	 1.6177226362	 0.32358531	 1.00427294	 0.093333
H	 0.9886611859	-0.7142626096	 3.18899813	 0.128333
H	-0.2068114504	 0.497601398	 2.6983905438	 0.118786
H	-0.5645043298	-1.2329771369	 2.4972835242	 0.134136
H	 2.3388854462	-4.4145791273	-0.825554684	 0.159372
H	 3.6779415958	-4.0670092788	 0.2679066427	 0.154609
H	 0.9802670945	-5.1007346344	 1.3684679136	 0.095048
12.294	44.5599	63.915	96.0577	103.0983	185.1269	210.6026	247.1719	293.0474	350.1281	368.4829	449.2089	470.411	529.7774	571.5188	723.9798	792.7495	863.6184	1002.5206	1033.8247	1041.3822	1065.2508	1098.6105	1133.194	1179.7501	1184.0044	1211.373	1218.0311	1290.7283	1343.7577	1373.1974	1397.7021	1414.5014	1438.3402	1475.2782	1481.7945	1490.763	1498.5985	1511.0539	1841.0186	2370.9277	2901.7062	2949.6899	2976.62	3001.9124	3025.677	3048.6274	3079.2377	3115.9489	3122.6234	3133.2229
COC(C)C#CCC=O	CO[C@@H](C)C#CCC=O	
InChI=1S/C7H10O2/c1-7(9-2)5-3-4-6-8/h6-7H,4H2,1-2H3	InChI=1S/C7H10O2/c1-7(9-2)5-3-4-6-8/h6-7H,4H2,1-2H3/t7-/m0/s1
