20
gdb 50530	2.25533	1.39593	0.95805	3.4213	80.48	-0.2345	-0.0131	0.2214	1262.3252	0.170302	-403.110436	-403.101591	-403.100647	-403.144941	32.552	
O	 0.0004964269	-0.0581350128	 0.1405061634	-0.264777
C	-0.0011964873	 1.1467662962	 0.1294842692	 0.185593
C	 1.2415227199	 1.9957514108	 0.0282337853	-0.128361
C	 1.0533886282	 3.2315833768	-0.9116578752	-0.244187
C	 0.7771564892	 4.1185754037	 0.3305448559	-0.245469
C	 1.3844840777	 3.0055729231	 1.2193904324	 0.070306
N	 0.661486998	 2.6687270004	 2.4276024622	-0.06322
C	 1.4018725115	 1.9101563802	 3.4352807698	-0.22197
C	 1.0905023413	 3.3490042574	 3.648431371	-0.2293
H	-0.95558874	 1.7171440367	 0.1780885528	 0.075502
H	 2.0937073584	 1.3401794265	-0.1581928943	 0.085472
H	 1.9840081812	 3.4889562541	-1.4215694738	 0.114221
H	 0.2589227281	 3.1595637296	-1.6585385737	 0.110654
H	 1.2445106204	 5.1047979746	 0.3681775027	 0.101362
H	-0.2918853876	 4.2256565892	 0.5314071133	 0.117977
H	 2.4545882133	 3.1960539921	 1.4107622147	 0.06095
H	 0.8370581903	 1.139069236	 3.9497246995	 0.126922
H	 2.4366837714	 1.6507185977	 3.2185207657	 0.114844
H	 1.9172197389	 4.0537644582	 3.5723879262	 0.111891
H	 0.2957821004	 3.6494590893	 4.3245391528	 0.121591
48.951	89.5789	105.1351	163.7608	241.0773	294.0201	331.0571	410.7164	467.9744	501.8614	665.9738	741.8977	807.7279	869.6265	877.8512	891.1708	897.7648	939.6719	969.7441	997.6555	1017.2195	1055.8808	1085.2841	1110.9014	1113.8113	1121.8035	1141.5179	1175.0546	1198.8124	1214.5754	1245.7802	1260.0233	1268.8605	1276.1394	1321.8022	1324.8732	1380.7333	1437.3865	1480.8211	1490.3721	1497.6526	1516.6745	1826.2898	2881.2577	2942.7699	3064.3201	3069.0127	3095.8285	3099.7164	3103.3789	3111.7235	3128.3605	3183.5153	3198.517
O=CC1CCC1N1CC1	O=C[C@H]1CC[C@H]1N1CC1	
InChI=1S/C7H11NO/c9-5-6-1-2-7(6)8-3-4-8/h5-7H,1-4H2	InChI=1S/C7H11NO/c9-5-6-1-2-7(6)8-3-4-8/h5-7H,1-4H2/t6-,7-/m1/s1
