16
gdb 36667	3.26975	0.80829	0.69083	3.9247	75.95	-0.2758	0.005	0.2808	1557.9792	0.122164	-400.706591	-400.697436	-400.696492	-400.741736	32.362	
C	-0.1258408861	-1.1874328	 0.3054645799	-0.419487
C	-0.0315428909	 0.0052048851	 0.1896744288	 0.334902
C	 0.0426946268	 1.4322492949	 0.0311847444	-0.153201
O	 0.7815685333	 2.1762526491	 1.0171584055	-0.244392
C	 1.303138333	 2.1309442918	-0.3099203591	 0.05941
C	 2.6154961096	 1.4113548568	-0.4960992684	-0.237335
C	 3.7561105637	 2.1713722886	 0.21512168	-0.331232
C	 5.051082712	 1.5187620855	 0.0435285283	 0.25716
N	 6.0684103653	 0.9916876501	-0.1061383755	-0.302531
H	-0.20552043	-2.24133529	 0.4147428243	 0.211585
H	-0.8900396009	 1.9095699974	-0.2677692725	 0.123725
H	 1.2030045719	 3.0738905707	-0.8524300253	 0.103732
H	 2.5437975087	 0.3976856456	-0.0948613216	 0.143525
H	 2.8344301564	 1.3282506853	-1.5660709789	 0.12875
H	 3.8309907816	 3.1972539036	-0.1645177234	 0.151902
H	 3.5307286655	 2.2434098654	 1.2843480837	 0.173484
52.834	70.32	96.7969	160.9844	202.2962	247.8757	341.8817	398.4255	458.2423	528.4658	557.2966	608.695	639.9541	678.6346	764.0247	815.4831	828.8391	940.3408	957.4706	1016.5459	1034.2472	1062.4434	1129.7477	1148.0753	1218.1152	1276.3135	1288.9204	1312.3782	1365.3883	1391.5726	1459.5464	1469.5566	1485.9924	2241.4348	2364.1453	3043.5355	3058.3929	3083.1142	3088.0469	3116.5789	3121.1379	3499.9196
C#CC1OC1CCC#N	C#C[C@H]1O[C@H]1CCC#N	
InChI=1S/C7H7NO/c1-2-6-7(9-6)4-3-5-8/h1,6-7H,3-4H2	InChI=1S/C7H7NO/c1-2-6-7(9-6)4-3-5-8/h1,6-7H,3-4H2/t6-,7+/m1/s1
