16
gdb 55887	3.45125	0.91557	0.86081	3.1278	72.11	-0.2432	0.0024	0.2456	1354.3385	0.12224	-437.862403	-437.853236	-437.852292	-437.897326	33.298	
N	-0.2059671527	 0.3974913998	 0.9233756444	-0.507419
C	 0.0153428213	-0.0078502106	-0.3589143336	 0.376865
O	 0.878437689	 0.4630173743	-1.071791531	-0.35745
C	-0.9619669926	-1.0868901482	-0.8494204216	-0.340157
C	-0.9919597685	-2.3149496248	 0.0297100984	 0.056934
O	-1.5212559617	-2.1628501361	 1.352400785	-0.248763
C	-2.25139495	-2.9907991963	 0.4254672245	-0.153654
C	-3.5428231339	-2.5285028496	-0.0030337229	 0.336867
C	-4.6326052203	-2.173885519	-0.3655992114	-0.423664
H	 0.4374898233	 1.0585751211	 1.3267003571	 0.258611
H	-0.8453103444	-0.1019423812	 1.5210322953	 0.27549
H	-1.9667535938	-0.6559695472	-0.9067422135	 0.13753
H	-0.6488224321	-1.3632513566	-1.8584173588	 0.135606
H	-0.0986816703	-2.9397426442	-0.0064824795	 0.114991
H	-2.1985013438	-4.0525429349	 0.6630200106	 0.126486
H	-5.5956397194	-1.8560071565	-0.6825896027	 0.211725
41.1188	61.9325	128.961	186.3698	225.7839	322.0145	355.3119	371.3055	462.2183	531.072	550.9435	592.4064	606.9276	639.4316	677.7367	714.2539	802.1768	828.8884	874.0422	937.8735	979.3002	1033.2992	1112.875	1126.3578	1152.6991	1223.863	1276.8385	1306.7122	1356.2577	1381.5872	1444.068	1463.6957	1621.4864	1808.2056	2241.0943	3061.9004	3104.477	3121.5216	3129.0515	3500.0144	3580.8985	3719.979
NC(=O)CC1OC1C#C	NC(=O)C[C@H]1O[C@H]1C#C	
InChI=1S/C6H7NO2/c1-2-4-5(9-4)3-6(7)8/h1,4-5H,3H2,(H2,7,8)	InChI=1S/C6H7NO2/c1-2-4-5(9-4)3-6(7)8/h1,4-5H,3H2,(H2,7,8)/t4-,5+/m0/s1
