17
gdb 64618	2.92292	1.45977	1.3732	1.951	78.13	-0.2505	-0.0074	0.2431	1019.5867	0.135477	-380.814045	-380.805972	-380.805028	-380.846251	31.439	
C	-0.0781129098	 1.6015999471	-0.0150909626	-0.41522
C	 0.0259483511	 0.0670954099	 0.0233135912	 0.049923
N	 0.8408100915	-0.4137125632	-1.1340206367	-0.21596
C	 1.752413085	-1.1665393153	-0.6676678749	 0.027249
N	 1.8150501315	-1.4177000595	 0.7365650882	-0.120253
C	 2.198441874	-0.167492382	 1.4542420495	-0.260841
C	 0.7706821297	-0.5049579417	 1.2523956512	-0.052554
C	-1.3132345874	-0.5255137996	-0.0563703819	 0.368299
C	-2.4138465165	-1.0055130254	-0.0958084752	-0.475805
H	 0.9158162037	 2.0527576016	 0.034123079	 0.116861
H	-0.5567189413	 1.9152109486	-0.9450367544	 0.143336
H	-0.6749799469	 1.9632415134	 0.8263711341	 0.126949
H	 2.49481831	-1.6491392702	-1.2971558097	 0.131216
H	 2.6530229946	-0.3277861776	 2.4267706087	 0.129631
H	 2.6427160957	 0.6252786431	 0.859640732	 0.131484
H	 0.1798886028	-0.8733318764	 2.0828911928	 0.115789
H	-3.3843749577	-1.4343384427	-0.1436944912	 0.199898
120.8317	147.6768	206.5723	225.4585	264.5201	390.2689	421.3905	473.4716	505.4383	589.5855	630.1488	641.6621	655.5581	717.4702	801.4182	834.561	861.4365	904.8405	947.0738	965.3648	1021.7132	1044.0179	1077.1619	1109.6338	1133.042	1161.9145	1179.8538	1201.1868	1254.9263	1316.8132	1361.0041	1404.0512	1482.1483	1487.398	1498.9682	1672.3151	2237.7293	3052.1545	3117.5496	3129.65	3139.1006	3182.1856	3186.6888	3210.5768	3501.0832
CC1(N=CN2CC12)C#C	C[C@]1(N=CN2C[C@@H]12)C#C	
InChI=1S/C7H8N2/c1-3-7(2)6-4-9(6)5-8-7/h1,5-6H,4H2,2H3	InChI=1S/C7H8N2/c1-3-7(2)6-4-9(6)5-8-7/h1,5-6H,4H2,2H3/t6-,7-,9?/m0/s1
