14
gdb 57171	3.24054	1.23269	0.89808	1.9197	65.89	-0.2902	-0.082	0.2082	1186.7946	0.100032	-470.076771	-470.067584	-470.066639	-470.111522	31.724	
C	-1.2350446694	 1.0668731117	-0.31781181	-0.362118
N	-0.2530121808	 0.0151431802	-0.0021086192	-0.221468
C	-0.2687951014	-0.4787871889	 1.3646701202	 0.50047
N	 0.6366244809	-1.4346272324	 1.6445711054	-0.556425
O	-1.0651383929	-0.0211810931	 2.1543859006	-0.382581
C	 0.5978295227	-0.4388921848	-0.9709378033	 0.395884
O	 1.4558492558	-1.29802617	-0.8628222816	-0.36382
C	 0.4245071649	 0.2111106656	-2.2828237186	 0.226554
N	 0.3424308316	 0.6785351926	-3.3363057388	-0.312922
H	-1.9219786585	 0.7315606271	-1.0977716525	 0.156478
H	-1.7866921249	 1.2609956007	 0.5986205217	 0.191213
H	-0.7309811829	 1.9782956407	-0.6459894621	 0.156618
H	 1.2679087485	-1.7799365707	 0.9352628982	 0.297736
H	 0.6313185263	-1.7905926986	 2.58478034	 0.27438
63.2993	76.5643	88.2555	156.8113	234.5852	324.0532	325.4208	368.2548	383.6068	431.5338	479.0693	562.93	647.8054	652.2556	729.3873	766.3888	780.0809	887.8033	1110.1704	1141.3101	1157.2058	1215.7233	1344.0649	1362.2841	1452.9371	1500.989	1507.6981	1587.4927	1747.8393	1830.7005	2350.0833	3063.191	3133.1807	3189.616	3536.4692	3719.9529
CN(C(N)=O)C(=O)C#N	CN(C(=O)N)C(=O)C#N	
InChI=1S/C4H5N3O2/c1-7(4(6)9)3(8)2-5/h1H3,(H2,6,9)	InChI=1S/C4H5N3O2/c1-7(4(6)9)3(8)2-5/h1H3,(H2,6,9)
