16
gdb 67529	2.48373	1.8684	1.53063	5.5632	67.54	-0.2439	0.0132	0.257	924.1387	0.124405	-437.848596	-437.841253	-437.840309	-437.88017	28.555	
C	-0.033550678	 1.5742207728	-0.0158779537	-0.49918
C	-0.0100086707	 0.0660378546	 0.0453684302	 0.113447
C	-1.2187564971	-0.670895456	 0.6967015975	-0.099355
N	-1.0516453378	-2.1099459919	 0.4335001896	-0.322792
C	-0.306631465	-1.4876067188	 1.5501675041	-0.076966
C	 0.9270799714	-0.7818588903	 0.933156602	 0.075683
O	 1.5082945853	-1.4215290116	-0.2374922553	-0.257658
C	 0.6763900025	-0.7216810148	-1.0940390486	 0.443552
O	 0.658855361	-0.7615749977	-2.2796411828	-0.332026
H	 0.9585686266	 1.978625584	-0.2372145752	 0.136378
H	-0.7162319984	 1.9105031078	-0.8030956669	 0.144537
H	-0.3736509814	 2.0008988304	 0.9335263915	 0.124197
H	-2.1853739291	-0.2333366125	 0.9122517666	 0.104065
H	-1.8488720022	-2.5997552972	 0.8370439431	 0.240742
H	-0.4164187728	-1.8438382833	 2.5661290886	 0.104534
H	 1.6784174956	-0.3693872855	 1.6039471394	 0.100843
140.4534	195.4788	212.4012	257.3748	271.4497	363.946	481.6017	577.5446	684.4719	697.594	732.5039	790.856	821.1572	824.6872	893.1729	904.0367	921.5173	946.4997	956.4242	1002.9923	1063.4683	1086.0406	1103.8512	1156.7687	1171.9025	1184.1332	1245.0927	1283.6543	1324.1533	1326.8479	1375.4954	1412.4464	1491.0833	1491.8541	1940.4754	3034.9391	3103.3209	3111.0981	3139.5283	3192.1683	3205.4366	3487.4541
CC12C3NC3C1OC2=O	C[C@]12[C@H]3N[C@H]3[C@H]1OC2=O	
InChI=1S/C6H7NO2/c1-6-3-2(7-3)4(6)9-5(6)8/h2-4,7H,1H3	InChI=1S/C6H7NO2/c1-6-3-2(7-3)4(6)9-5(6)8/h2-4,7H,1H3/t2-,3+,4-,6+/m1/s1
