18
gdb 63358	2.62937	1.50664	1.21065	4.307	74.42	-0.2252	0.002	0.2272	1086.605	0.147279	-439.14998	-439.14133	-439.140386	-439.183114	33.103	
C	 0.0805302098	 1.4976987647	-0.0876742566	-0.407074
C	-0.0452065055	-0.0179528351	 0.0659971199	 0.305433
C	-1.5163355402	-0.456969981	 0.0923010771	-0.399105
O	 0.550299042	-0.5586440264	-1.1617151762	-0.284338
C	 1.093137201	-1.7900379956	-1.2323296186	 0.461954
O	 1.3255206919	-2.3196287232	-2.2883068834	-0.383483
N	 1.4024992795	-2.3757255742	-0.0151308748	-0.386458
C	 1.3641697494	-1.6744220491	 1.1876196775	-0.001315
C	 0.7025476608	-0.5236297911	 1.2723299164	-0.1534
H	 1.1319740832	 1.7897802234	-0.1434769497	 0.129426
H	-0.4238713432	 1.8290337472	-0.9990252301	 0.131528
H	-0.3778766303	 2.0021678637	 0.7682190899	 0.117051
H	-2.0277686036	-0.1252651156	-0.8162571047	 0.129082
H	-1.5921799322	-1.5455452407	 0.1614546308	 0.128396
H	-2.0245309066	-0.0249467945	 0.9599419497	 0.117844
H	 1.922725412	-3.2337343959	-0.0927988297	 0.266749
H	 1.9042592475	-2.1267780824	 2.0105165569	 0.125463
H	 0.6710874644	 0.0463690156	 2.1910317555	 0.10225
72.3711	116.0562	222.9713	258.4119	264.7299	319.2707	332.2684	411.4938	479.8211	507.4613	537.4932	545.1625	604.5158	705.3075	724.9934	772.5541	851.6431	921.0406	929.7618	936.3883	956.9767	1017.9186	1019.7609	1105.7508	1137.9581	1197.9313	1229.5093	1236.5654	1329.5867	1395.8579	1409.4261	1422.5904	1465.712	1475.0136	1480.6113	1493.4523	1504.965	1735.1126	1848.4737	3038.9668	3047.3885	3114.3918	3121.3145	3123.2919	3131.1624	3202.7046	3227.9558	3664.1566
CC1(C)OC(=O)NC=C1	CC1(C)OC(=O)NC=C1	
InChI=1S/C6H9NO2/c1-6(2)3-4-7-5(8)9-6/h3-4H,1-2H3,(H,7,8)	InChI=1S/C6H9NO2/c1-6(2)3-4-7-5(8)9-6/h3-4H,1-2H3,(H,7,8)
