19
gdb 65401	3.36666	0.96463	0.92033	4.3969	78.35	-0.2388	-0.0131	0.2257	1347.9488	0.157247	-423.005174	-422.996057	-422.995113	-423.039312	34.228	
O	 0.019251386	 1.4165691446	-0.0216813177	-0.458745
C	 0.0093107289	 0.0127637577	-0.0323824445	 0.36579
C	 1.1549059829	-0.6784948477	-0.6947717518	-0.368876
C	 1.080357182	-0.6335990499	 0.8367221849	-0.14394
C	 2.0601951729	 0.2062801334	 1.566086007	 0.169617
O	 2.5088884407	-0.0733099078	 2.6514074703	-0.274496
C	-1.3561641457	-0.6128408286	-0.0361940441	-0.021525
C	-2.4735363824	-0.0056053282	 0.7706461622	-0.261641
C	-2.5134758662	 0.059743509	-0.735870467	-0.286073
H	-0.1133323396	 1.7194509066	-0.9265256451	 0.290986
H	 0.9983581386	-1.6384915396	-1.1736594455	 0.127881
H	 1.9130204711	-0.0523010622	-1.155116165	 0.123501
H	 0.8045415512	-1.5446928549	 1.3562122325	 0.108536
H	 2.3670328825	 1.130011909	 1.0318522355	 0.078323
H	-1.3318127968	-1.6973034781	-0.0913260303	 0.086677
H	-3.1581566266	-0.6725188584	 1.281881696	 0.114275
H	-2.2539795641	 0.9163289625	 1.2964078953	 0.131766
H	-2.3460917486	 1.029544577	-1.1916176342	 0.102058
H	-3.2175883668	-0.5673673441	-1.2708352288	 0.115885
61.9026	107.4893	131.4918	199.1491	270.6113	282.0306	313.2033	345.9556	417.6825	458.5601	495.7212	595.2323	687.6288	787.3189	819.9303	835.2531	865.0206	893.7955	931.7101	962.3738	996.3322	1037.9526	1052.7184	1063.3331	1071.2539	1087.1499	1091.4311	1134.3141	1175.0974	1198.7539	1213.52	1234.4608	1273.5032	1338.3192	1347.2341	1421.0973	1445.7086	1459.7872	1475.7028	1504.634	1813.2999	2911.1413	3128.7902	3136.2944	3142.2641	3150.2224	3179.585	3216.6897	3221.657	3234.8832	3804.3007
OC1(CC1C=O)C1CC1	O[C@]1(C[C@H]1C=O)C1CC1	
InChI=1S/C7H10O2/c8-4-6-3-7(6,9)5-1-2-5/h4-6,9H,1-3H2	InChI=1S/C7H10O2/c8-4-6-3-7(6,9)5-1-2-5/h4-6,9H,1-3H2/t6-,7+/m0/s1
