20
gdb 6715	5.40268	0.74361	0.70662	4.2827	73.43	-0.2761	0.0105	0.2867	1620.8108	0.174726	-386.173091	-386.163255	-386.162311	-386.20904	33.935	
C	-0.2074346774	 1.5072703414	-0.0318804454	-0.385722
C	 0.0153362713	-0.0123050226	 0.0050663856	 0.035225
C	 0.9771813892	-0.4447780581	-1.1097971602	-0.388747
C	 0.5318642103	-0.5018104647	 1.3700742794	-0.176743
C	-0.4396301204	-0.2763033409	 2.5239340003	-0.098723
O	 0.0294994827	-0.9449034831	 3.7049029123	-0.172641
C	 0.5174776566	-0.1949641018	 4.7078639459	 0.170033
O	 0.9617860112	-0.6633355146	 5.7125339674	-0.27569
H	 0.7238210913	 2.0438357755	 0.1866456379	 0.115714
H	-0.5469430764	 1.8258582398	-1.0226345647	 0.117782
H	-0.9604032421	 1.8370244321	 0.6907669201	 0.11266
H	-0.9528735859	-0.5007743466	-0.1791159623	 0.076676
H	 1.9636987225	 0.0145152246	-0.975478284	 0.116025
H	 1.1143112324	-1.530862114	-1.1203805438	 0.1153
H	 0.6020168812	-0.1426708562	-2.0927956665	 0.113685
H	 0.740780744	-1.5765612561	 1.3176656519	 0.115305
H	 1.486206821	-0.0104610629	 1.6036117409	 0.101024
H	-0.5792098575	 0.790191988	 2.737589892	 0.111471
H	-1.4213692137	-0.7056813855	 2.299345262	 0.124028
H	 0.4539242897	 0.8923273857	 4.5002166713	 0.073339
39.3546	52.5652	98.667	144.4961	199.437	224.8472	248.3906	299.1916	350.715	408.5448	424.1105	456.917	675.1908	783.1106	832.5404	927.4864	946.2605	965.8966	988.0731	1031.1434	1047.4118	1059.058	1143.258	1153.3546	1191.6278	1208.3152	1284.6334	1303.0912	1337.2989	1365.2095	1377.4249	1402.2034	1410.0968	1424.3655	1436.8522	1482.5751	1488.8685	1497.2248	1506.2363	1510.156	1513.3742	1866.4385	2935.1641	2995.9697	3020.2527	3025.5452	3030.8311	3033.112	3064.2959	3089.7481	3091.4653	3097.1877	3101.9901	3104.4892
CC(C)CCOC=O	CC(C)CCOC=O	
InChI=1S/C6H12O2/c1-6(2)3-4-8-5-7/h5-6H,3-4H2,1-2H3	InChI=1S/C6H12O2/c1-6(2)3-4-8-5-7/h5-6H,3-4H2,1-2H3
