19
gdb 117293	4.82658	0.67326	0.60218	5.8391	74.89	-0.2455	-0.0026	0.2429	1846.5651	0.157813	-456.419962	-456.409496	-456.408552	-456.457124	36.47	
C	 0.0964266766	 1.6336646165	-0.0850526627	-0.389107
C	-0.0946844387	 0.1159900559	-0.0487342243	-0.155039
C	 0.7384268379	-0.6070625597	-1.1069590735	-0.323433
C	 0.5868313091	-2.1267951481	-1.0429174048	 0.433258
O	-0.0135136569	-2.7012403373	-0.1714169942	-0.307094
N	 1.215529405	-2.7733474752	-2.1134304978	-0.407684
C	 1.4250089526	-4.1594872659	-2.2599440448	 0.46249
N	 1.9087856256	-4.4648378229	-3.5266464872	-0.566668
O	 1.2692085111	-4.9767243111	-1.3902348854	-0.330092
H	 1.1424272238	 1.9093861006	 0.0910838509	 0.113634
H	-0.1959677811	 2.0530154168	-1.0546701034	 0.110917
H	-0.5089792888	 2.1236591492	 0.6832286325	 0.118917
H	 0.1705905234	-0.2788827506	 0.9367380496	 0.123889
H	-1.15066867	-0.136012929	-0.1935273438	 0.113621
H	 0.4696176176	-0.2610450726	-2.1150944361	 0.109982
H	 1.804898767	-0.3685318377	-0.9851675917	 0.125649
H	 1.6573638497	-2.1790114648	-2.7981324851	 0.249004
H	 1.5695173238	-3.924492836	-4.3085606907	 0.250782
H	 1.9400703126	-5.4593678981	-3.6961555877	 0.266973
38.2344	48.0031	77.5328	109.1326	124.1354	227.8697	249.1042	305.5717	372.2515	405.0131	424.6092	527.5738	561.0421	582.5505	596.7855	740.91	755.0495	777.2227	883.6683	894.1204	946.6498	979.2011	1051.6218	1107.569	1113.1534	1125.2987	1167.6514	1250.717	1298.3319	1323.9398	1332.0781	1394.2442	1416.5879	1461.1939	1488.0589	1501.3568	1506.3045	1508.6937	1626.7415	1810.9837	1873.3655	3006.1771	3028.0977	3036.5808	3054.3183	3078.3758	3103.7237	3105.9619	3569.952	3620.067	3684.7013
CCCC(=O)NC(N)=O	CCCC(=O)NC(=O)N	
InChI=1S/C5H10N2O2/c1-2-3-4(8)7-5(6)9/h2-3H2,1H3,(H3,6,7,8,9)	InChI=1S/C5H10N2O2/c1-2-3-4(8)7-5(6)9/h2-3H2,1H3,(H3,6,7,8,9)
