20
gdb 40993	3.7775	1.53487	1.47117	1.4191	83.7	-0.2061	0.077	0.2831	985.8066	0.173488	-365.897167	-365.890584	-365.88964	-365.92764	28.565	
C	-0.0272876069	 1.5065863823	-0.2270119706	-0.186368
C	 1.5001335435	 1.4244917886	 0.163153549	-0.338255
C	 1.0548659113	 0.1245692738	 0.8592338147	 0.300878
C	 0.9906245343	-1.4115902435	 1.1458428582	-0.093253
C	 1.4180886541	-1.7302762681	 2.5696942371	-0.243971
C	 0.8143681352	-0.5034292375	 3.3173211116	-0.253579
C	 0.146973414	 0.2289165082	 2.1568453054	-0.037524
C	-0.4857577213	-0.7819248249	 1.1794613986	-0.036656
N	-0.1048358915	-0.002966523	-0.0681227286	-0.152152
H	-0.6089495472	 2.1162324473	 0.4722045438	 0.103023
H	-0.2641478594	 1.8096529023	-1.2487735713	 0.104853
H	 2.1318855599	 1.2572929094	-0.7122296903	 0.117484
H	 1.9172185819	 2.2181945078	 0.7866127914	 0.100809
H	 1.2292174269	-2.088615537	 0.3268271301	 0.079179
H	 1.0023756268	-2.6808359929	 2.9185295538	 0.10106
H	 2.5059590969	-1.7951235806	 2.6679205654	 0.10299
H	 0.0950130989	-0.7978310929	 4.0887467208	 0.098226
H	 1.5787360269	 0.1110464547	 3.8044289285	 0.0982
H	-0.3734680891	 1.1598240523	 2.3768518444	 0.062925
H	-1.4209364153	-1.3420910064	 1.280087378	 0.072132
201.4153	249.7322	290.189	331.2064	476.2363	536.996	630.3883	667.6924	690.2832	708.1362	788.3813	824.6475	836.5472	854.404	881.1952	898.9939	924.8749	962.0466	968.6001	986.9605	1000.9935	1034.484	1048.0236	1080.3824	1113.5207	1131.8237	1146.931	1167.1032	1181.8834	1190.1	1218.402	1231.2751	1237.6473	1250.1444	1259.9837	1273.7558	1280.4261	1323.5743	1379.2871	1472.529	1486.3679	1501.0714	1507.0709	3039.0101	3043.1301	3051.6108	3054.2929	3067.8586	3072.0527	3093.9701	3106.1918	3127.2978	3132.5468	3138.5504
C1CC23C4CCC2C4N13	C1C[C@@]23[C@H]4CC[C@@H]2[C@H]4N13	
InChI=1S/C8H11N/c1-2-6-7-5(1)8(6)3-4-9(7)8/h5-7H,1-4H2	InChI=1S/C8H11N/c1-2-6-7-5(1)8(6)3-4-9(7)8/h5-7H,1-4H2/t5-,6+,7-,8+
