13
gdb 5656	5.37227	2.25267	1.58715	1.8271	65.63	-0.1859	0.0229	0.2088	734.6853	0.100279	-357.690778	-357.685074	-357.68413	-357.720199	22.857	
N	-0.0260983085	 1.3791445262	 0.0101069633	-0.404927
C	 1.302444631	 1.7489689966	-0.0010030239	-0.008892
N	 2.1372056596	 0.7255691501	-0.0146251486	-0.359466
C	 1.2971764159	-0.3478272019	-0.0119624916	 0.347386
C	-0.0461510804	-0.0024815606	 0.0030842617	 0.322505
C	-0.8255236759	-1.1892165594	 0.0045250646	-0.319922
C	 0.0976033742	-2.2199375973	-0.0099655466	-0.060129
N	 1.3870218461	-1.7156516193	-0.0200306858	-0.382762
H	-0.8099285992	 2.0078548444	 0.0211399127	 0.262897
H	 1.5958418678	 2.7879764194	 0.0015676534	 0.12531
H	-1.8973825958	-1.3066486384	 0.0144694997	 0.094864
H	-0.0681437008	-3.2853055056	-0.0139144505	 0.118067
H	 2.230128716	-2.2611474543	-0.0312198486	 0.265069
215.8577	334.7997	393.4041	436.1035	477.3482	605.1473	640.2243	689.2858	707.1361	751.3676	758.7359	781.3833	793.5649	922.3788	970.5874	1070.6472	1085.1241	1110.4134	1177.1132	1254.1724	1307.6474	1368.6688	1386.9291	1464.2464	1500.2199	1505.7297	1549.569	1608.9623	3251.3062	3254.2191	3270.9513	3681.9305	3692.0705
N1C=NC2=C1C=CN2	[nH]1cnc2c1cc[nH]2	
InChI=1S/C5H5N3/c1-2-6-5-4(1)7-3-8-5/h1-3,6H,(H,7,8)	InChI=1S/C5H5N3/c1-2-6-5-4(1)7-3-8-5/h1-3,6H,(H,7,8)
