12
gdb 132249	3.52121	1.19369	0.89148	2.7328	70.98	-0.2822	-0.0769	0.2054	1152.0742	0.079133	-439.700989	-439.694237	-439.693292	-439.732503	25.076	
F	 0.0070469631	 0.0248038943	 0.0031184217	-0.061714
C	-0.0214148382	 1.3542510194	 0.0105189811	 0.268918
C	-1.2333355058	 2.0190802996	 0.0305721398	-0.301384
C	-1.1955110885	 3.4175724163	 0.0374066079	 0.139797
C	 0.0519528558	 4.0593341069	 0.0237444554	-0.046146
N	 1.2073993139	 3.4004433512	 0.0044842605	-0.251479
C	 1.1736417277	 2.0679025815	-0.0020591034	-0.086611
C	-2.4023404302	 4.1829677463	 0.0579117385	 0.222604
N	-3.3758257125	 4.8086168594	 0.0744989063	-0.318215
H	-2.1678610785	 1.4719801551	 0.0404592534	 0.151036
H	 0.1019244492	 5.1436786448	 0.0287512197	 0.142294
H	 2.120136654	 1.5346495553	-0.017806721	 0.1409
144.6219	148.8778	239.2061	389.5696	400.1504	464.427	498.1392	540.1413	578.2586	637.0108	710.8794	724.8736	928.6826	940.1169	976.1466	980.3885	1036.506	1158.7973	1193.9445	1280.7979	1312.7193	1336.379	1463.3123	1480.468	1602.7825	1639.0104	2348.8099	3175.7021	3185.476	3219.3117
FC1=CC(=CN=C1)C#N	Fc1cc(cnc1)C#N	
InChI=1S/C6H3FN2/c7-6-1-5(2-8)3-9-4-6/h1,3-4H	InChI=1S/C6H3FN2/c7-6-1-5(2-8)3-9-4-6/h1,3-4H
