17
gdb 87534	2.57386	1.55901	1.16397	2.989	73.83	-0.2405	-0.0273	0.2132	1082.5717	0.134276	-421.784522	-421.776335	-421.775391	-421.817385	30.702	
C	-0.0234995584	 1.5637805894	 0.009921086	-0.406538
C	-0.0030632563	 0.052497276	 0.0479611265	-0.051353
C	 1.2614221217	-0.7148559045	-0.2239232699	-0.356287
C	 0.6861883053	-0.6707188048	 1.1729954997	 0.224804
C	 1.3050329235	-0.1510065649	 2.4620786432	-0.09783
O	 0.2359553565	-0.0402513845	 3.4016129619	-0.234832
C	 0.851088074	-1.3361161399	 3.2317057231	-0.112566
C	 0.2406623495	-1.909531977	 1.9398218388	 0.365999
O	-0.2559172416	-2.9509488851	 1.6259070135	-0.31569
H	 0.9279694623	 1.9825153802	 0.353997254	 0.113633
H	-0.1967461491	 1.9263293488	-1.0087640451	 0.125036
H	-0.8151140092	 1.9629314419	 0.6517333772	 0.134805
H	-0.918572851	-0.4301266491	-0.2861677428	 0.107497
H	 1.2008433211	-1.6636339869	-0.7468882567	 0.135527
H	 2.1720193544	-0.1505166315	-0.4019294738	 0.120571
H	 2.194113946	 0.4471195764	 2.6169616932	 0.123474
H	 1.2588904813	-1.8227203644	 4.1093540912	 0.123751
99.5963	127.5195	172.1176	197.7563	241.3737	287.5769	395.1125	441.2246	549.4328	632.5637	682.3444	779.5035	799.9789	845.6218	852.3835	871.0661	902.5278	937.3376	945.5521	993.9954	1021.0745	1053.3474	1069.3068	1094.1487	1127.799	1182.4179	1195.8952	1208.4326	1222.5555	1329.3025	1346.4386	1413.1164	1430.5667	1483.3817	1491.251	1504.9041	1892.7574	3033.4791	3098.154	3104.3294	3124.5611	3140.8598	3194.8189	3208.5528	3214.5301
CC1CC11C2OC2C1=O	C[C@H]1C[C@]21[C@H]1O[C@H]1C2=O	
InChI=1S/C7H8O2/c1-3-2-7(3)5(8)4-6(7)9-4/h3-4,6H,2H2,1H3	InChI=1S/C7H8O2/c1-3-2-7(3)5(8)4-6(7)9-4/h3-4,6H,2H2,1H3/t3-,4-,6-,7+/m0/s1
