17
gdb 19611	3.81993	1.9792	1.66083	1.201	66.69	-0.2315	0.0683	0.2998	826.862	0.142636	-363.787203	-363.780227	-363.779283	-363.817966	27.602	
C	 0.0096887552	 1.5874496787	-0.0001883926	-0.420735
C	 0.0806792599	 0.0740962487	-0.0954470919	 0.084985
C	 0.7173547828	-0.6589176643	-1.2922591815	-0.138264
C	 1.2319160946	-1.690900642	-0.2087942717	-0.081635
C	 2.3363612109	-0.7255318205	 0.0521058035	-0.087581
C	 2.1710097922	-0.1098594997	-1.3417608386	 0.146936
O	 2.9936321279	-0.7137248568	-2.3158581685	-0.445661
N	 1.0521276923	-0.6366698155	 0.822494756	-0.155908
H	 0.9796464156	 2.0668518208	-0.1531859768	 0.126075
H	-0.6881928986	 1.9840934598	-0.7457810986	 0.119909
H	-0.3526189005	 1.8804787599	 0.9903832276	 0.129579
H	-0.902158999	-0.3538357696	 0.1306601007	 0.0833
H	 0.1884378897	-0.8608076627	-2.2225409893	 0.074966
H	 1.0984986104	-2.7479749513	-0.0210283786	 0.100726
H	 3.2431128877	-0.8496486229	 0.630595462	 0.100518
H	 2.3092798535	 0.9655070462	-1.4753856125	 0.083369
H	 2.9675098456	-1.667817659	-2.1726666092	 0.279422
157.5161	206.2317	227.4438	311.2813	326.938	379.6866	540.8089	560.8482	682.0593	764.6514	789.9975	828.1967	870.2282	880.4838	912.5238	936.2084	955.3962	1007.677	1030.8484	1043.816	1098.3124	1113.0795	1130.3101	1157.6953	1169.6752	1198.9268	1226.4561	1263.869	1278.2623	1289.8503	1335.5839	1393.3638	1410.1564	1440.6324	1484.1763	1500.5073	3037.9388	3044.4518	3085.5807	3103.7071	3122.812	3129.8359	3194.4712	3208.4506	3779.0583
CC1C2C3C(C2O)N13	C[C@H]1[C@@H]2[C@H]3[C@@H]([C@H]2O)N13	
InChI=1S/C6H9NO/c1-2-3-4-5(6(3)8)7(2)4/h2-6,8H,1H3	InChI=1S/C6H9NO/c1-2-3-4-5(6(3)8)7(2)4/h2-6,8H,1H3/t2-,3+,4-,5-,6-,7?/m0/s1
