21
gdb 73718	2.62962	1.81491	1.36285	1.3288	81.17	-0.2383	0.0892	0.3276	1025.4678	0.185216	-387.068142	-387.060667	-387.059722	-387.099484	31.155	
C	-0.0047702349	 1.4487962245	 0.0454555595	-0.463414
C	 0.0009042738	-0.0704850597	 0.0429771916	 0.330219
C	 1.1060256223	-0.6594615371	-0.8300662441	-0.285054
C	 1.0227525617	-2.1805835245	-1.0502918567	-0.091456
O	-0.3061590588	-2.6718015344	-1.1359116454	-0.260854
C	-1.126869147	-2.2385426656	-0.0706948542	 0.0908
C	-0.496648893	-2.2035539501	 1.3684443534	-0.291653
C	-0.5498047033	-0.678513376	 1.3219219937	-0.102942
C	-1.3527474292	-0.717597895	 0.0121835901	-0.108383
H	 0.9213272361	 1.8459039122	 0.4776221211	 0.114889
H	-0.0910085823	 1.8427742601	-0.973593256	 0.115764
H	-0.8427752628	 1.8443053582	 0.6281692128	 0.11375
H	 1.0335539295	-0.1577473653	-1.8039594996	 0.102294
H	 2.096661275	-0.411617408	-0.4272595141	 0.094845
H	 1.4997112979	-2.4488829823	-1.9971731228	 0.104462
H	 1.5674202048	-2.7095468391	-0.2560749752	 0.094343
H	-2.0386012674	-2.8336222061	-0.1360671674	 0.084404
H	-1.2093474956	-2.6035413311	 2.0947301525	 0.103137
H	 0.4668774859	-2.6922830443	 1.5317785583	 0.098422
H	-0.7213154485	-0.0441237015	 2.1842127575	 0.079896
H	-2.2559795044	-0.1893115547	-0.2701940551	 0.076531
160.0392	216.8602	255.9317	315.3633	338.0299	393.6626	407.8038	493.0615	527.7785	617.1886	696.7233	726.8124	820.2165	839.0966	856.5074	879.9844	913.2106	958.4074	979.1877	1003.2437	1016.7685	1030.7055	1050.2905	1063.8625	1073.8548	1093.265	1136.7333	1160.5706	1191.9933	1238.416	1249.5828	1267.0976	1278.4201	1290.8676	1293.0042	1371.2121	1381.3751	1410.7699	1420.3466	1428.2913	1481.8973	1487.9839	1493.7982	1505.727	1522.8406	2999.9246	3011.9615	3022.9358	3048.8708	3059.7976	3082.624	3083.507	3097.548	3098.7803	3107.7242	3168.0648	3179.9276
CC12CCOC3CC1C23	C[C@@]12CCO[C@H]3C[C@@H]1[C@@H]23	
InChI=1S/C8H12O/c1-8-2-3-9-6-4-5(8)7(6)8/h5-7H,2-4H2,1H3	InChI=1S/C8H12O/c1-8-2-3-9-6-4-5(8)7(6)8/h5-7H,2-4H2,1H3/t5-,6+,7-,8-/m1/s1
