21
gdb 107966	2.62016	1.37062	1.32391	1.0884	82.84	-0.2512	0.0798	0.331	1128.5326	0.181824	-387.025441	-387.016784	-387.015839	-387.058512	34.035	
C	 0.0297475765	 1.5224958758	 0.0750183198	-0.38001
C	-0.0692965364	-0.0059242243	-0.0045396428	-0.317168
C	-1.4865010578	-0.51590493	 0.0533412085	 0.337854
C	-2.5426523182	-0.324156265	 1.1709114823	-0.320804
C	-3.2695388987	-1.1785852191	 0.1162302891	-0.116108
C	-2.5849213149	-0.4387450668	-1.0779355336	-0.086061
C	-2.1130295655	-1.7490028341	-1.7449686502	-0.336409
C	-1.9594914347	-1.9813054077	-0.2276314085	 0.364189
O	-1.4276907631	-3.0654001928	 0.4464905035	-0.481027
H	 1.0725480225	 1.8522481424	 0.039317178	 0.111134
H	-0.500744196	 1.997430802	-0.7571320634	 0.114703
H	-0.407617933	 1.8997576801	 1.0052644504	 0.119076
H	 0.4058257069	-0.3593954489	-0.9289993491	 0.098099
H	 0.4990961812	-0.4565730753	 0.8193897057	 0.107648
H	-2.3277010323	-0.8053804526	 2.1298452491	 0.09733
H	-2.9209809191	 0.6916327188	 1.325057301	 0.086534
H	-4.2883251436	-1.5705618255	 0.1190142757	 0.062949
H	-2.9533019563	 0.4698802928	-1.5498025228	 0.075902
H	-2.880782419	-2.336278846	-2.2609562361	 0.083798
H	-1.195098525	-1.7067100337	-2.339507586	 0.095269
H	-1.9702053535	-3.83937223	 0.2602145196	 0.283102
71.9247	141.2855	197.6504	242.8606	268.5223	280.2489	317.2713	409.2676	454.0971	527.6854	618.1059	663.138	707.7515	768.9419	788.3274	879.1829	891.0351	906.4651	932.5555	952.1458	979.7848	994.1555	1018.4675	1043.3099	1054.689	1089.348	1116.1786	1121.7666	1151.6651	1166.713	1191.1236	1206.7884	1227.24	1262.3072	1273.1359	1306.4447	1318.2862	1357.6555	1397.4229	1410.3761	1477.1381	1499.0253	1504.0385	1506.3958	1513.0883	3016.7	3033.3811	3034.0149	3039.8824	3048.0981	3092.5336	3094.9456	3097.5853	3101.8449	3105.3661	3138.1561	3804.1255
CCC12CC3C1CC23O	CC[C@@]12C[C@H]3[C@@H]1C[C@@]23O	
InChI=1S/C8H12O/c1-2-7-3-6-5(7)4-8(6,7)9/h5-6,9H,2-4H2,1H3	InChI=1S/C8H12O/c1-2-7-3-6-5(7)4-8(6,7)9/h5-6,9H,2-4H2,1H3/t5-,6-,7+,8-/m0/s1
