15
gdb 124344	2.82805	1.63825	1.04398	5.9753	71.04	-0.218	-0.0187	0.1993	1078.1746	0.112819	-450.160646	-450.152371	-450.151427	-450.193852	30.051	
C	-0.1392898127	 1.5069688994	 0.0098984388	-0.481165
C	 0.073374871	 0.008292375	 0.0015157761	 0.417747
O	 1.1521403049	-0.5249284923	-0.0086614757	-0.290284
N	-1.1187257865	-0.7479273001	 0.0087714727	-0.122768
N	-2.3556547051	-0.1023289551	 0.0216951981	-0.232609
C	-3.2242979872	-1.052626878	 0.0252752674	 0.065373
N	-2.651023132	-2.2956248273	 0.0155397892	-0.367735
C	-1.2523746032	-2.1548667026	 0.0047435975	 0.468732
N	-0.3254454832	-3.0205192933	-0.0059475922	-0.545547
H	 0.8435010687	 1.9771866823	 0.0043901063	 0.141674
H	-0.7171254557	 1.8253344557	-0.8614727259	 0.151014
H	-0.7036247192	 1.8176031124	 0.892830068	 0.15108
H	-4.291512597	-0.8916730806	 0.0347819802	 0.159395
H	-3.1250630992	-3.1810992205	 0.0176899077	 0.273593
H	-0.7074366736	-3.9644242952	-0.0063574981	 0.2115
74.7417	113.4787	158.5211	215.1469	217.2487	356.66	369.3196	455.9225	526.642	577.4196	638.7665	650.3604	719.7755	747.6907	749.1542	861.9468	922.4172	953.8744	1033.4904	1054.9646	1101.1252	1113.2492	1173.3367	1230.0506	1325.2575	1373.2804	1396.13	1428.1588	1461.8083	1472.5635	1651.1049	1746.7819	1836.4576	3061.5459	3128.3674	3168.5781	3261.7655	3502.8231	3691.9966
CC(=O)N1N=CNC1=N	CC(=O)N1N=CN[C@H]1[NH]	
InChI=1S/C4H6N4O/c1-3(9)8-4(5)6-2-7-8/h2H,1H3,(H2,5,6,7)	InChI=1S/C4H7N4O/c1-3(9)8-4(5)6-2-7-8/h2,4-5H,1H3,(H,6,7)/t4-/m1/s1
