20
gdb 111627	2.21636	1.46032	1.12557	2.3109	80.26	-0.2166	0.0126	0.2292	1179.4512	0.171123	-403.123722	-403.114886	-403.113942	-403.157316	33.486	
C	 0.3047444437	 1.3174925133	 0.0979582636	-0.499791
C	 0.0430132838	-0.1481191196	-0.0502267259	 0.340825
C	-0.3055112677	-0.8228799986	-1.150160247	-0.193321
C	-0.5090016899	-2.2882054298	-0.8465056493	-0.206884
N	-0.2250201158	-2.4492315237	 0.6023633396	-0.129041
C	 1.1606931624	-2.2020255422	 1.0241237233	-0.027038
C	 2.3578926277	-2.198323439	 0.0997690718	-0.098597
O	 3.522933363	-1.7467068299	 0.7799317873	-0.415563
C	 0.1410030555	-1.0993829137	 1.0983481538	-0.159213
H	 1.3332519547	 1.5121963475	 0.4279856842	 0.122108
H	 0.1438522338	 1.8518329473	-0.8416723012	 0.129598
H	-0.3522331121	 1.7596403832	 0.8573641285	 0.132538
H	-0.4176927998	-0.3993523867	-2.1424289273	 0.094214
H	-1.542614569	-2.6075872593	-1.0355488406	 0.114568
H	 0.132807476	-2.9474448523	-1.4458993458	 0.114747
H	 1.3878096037	-2.7048470773	 1.963908722	 0.098345
H	 2.5810190349	-3.2251046467	-0.212049723	 0.115605
H	 2.1676359831	-1.6095136899	-0.8059831009	 0.097193
H	 3.3553327218	-0.8428104718	 1.0657579808	 0.280803
H	-0.2500428698	-0.7972941107	 2.0687012161	 0.088904
66.0585	135.8114	171.4469	192.6092	255.7291	285.9438	316.2117	348.8679	420.1999	520.128	593.3383	618.487	731.6295	743.6216	811.3807	841.6618	896.5295	931.052	945.9109	1009.7892	1027.4498	1031.6752	1056.811	1064.4139	1078.2091	1116.9706	1142.5401	1193.5566	1202.3942	1223.2105	1274.1774	1289.5032	1335.3692	1355.9851	1377.3641	1408.2105	1416.4082	1437.9239	1478.8601	1488.4241	1494.2356	1507.9072	1709.6688	3009.2862	3018.4331	3023.9548	3035.1843	3063.5491	3067.3	3108.115	3116.175	3119.3314	3191.5326	3813.956
CC1=CCN2C(CO)C12	CC1=CCN2[C@@H](CO)[C@@H]12	
InChI=1S/C7H11NO/c1-5-2-3-8-6(4-9)7(5)8/h2,6-7,9H,3-4H2,1H3	InChI=1S/C7H11NO/c1-5-2-3-8-6(4-9)7(5)8/h2,6-7,9H,3-4H2,1H3/t6-,7+,8?/m0/s1
