12
gdb 129093	2.55966	1.79871	1.23492	3.5678	65.83	-0.2711	-0.0928	0.1783	948.529	0.077103	-468.76104	-468.753761	-468.752817	-468.793579	25.948	
N	-0.1802093035	 1.3948764455	 0.139394827	-0.446106
C	-0.0545748239	 0.1416387446	-0.0169575852	 0.174587
C	 1.2340988498	-0.5844809205	-0.1407567476	-0.010705
N	 1.6091393564	-1.571557415	-0.8615748572	-0.0312
O	 0.7594932426	-2.1083761223	-1.8431467591	-0.224724
C	-0.5886163881	-1.9703223398	-1.9267062015	 0.166236
N	-1.4692731556	-1.494860223	-1.1560543441	-0.273455
C	-1.2621141717	-0.7798928968	 0.0208828499	 0.361683
O	-1.9770973388	-0.8601089229	 0.9824606436	-0.285027
H	 0.7277665455	 1.8688261348	 0.117218202	 0.23837
H	 2.0327305045	-0.2490138104	 0.5219533039	 0.165395
H	-0.879469537	-2.4430849243	-2.8642294418	 0.164946
62.4254	91.1843	240.9436	296.8693	310.7584	417.937	465.5793	523.9639	627.2372	683.6677	783.2415	789.3611	842.5317	885.7473	900.6366	947.1156	977.3789	1025.9486	1075.247	1185.7814	1317.5433	1341.8821	1426.8041	1656.3445	1705.9365	1718.5473	1826.3591	3136.2676	3156.7139	3424.3625
N=C1C=NOC=NC1=O	[NH][C]1C=NOC=NC1=O	
InChI=1S/C4H3N3O2/c5-3-1-7-9-2-6-4(3)8/h1-2,5H	InChI=1S/C4H3N3O2/c5-3-1-7-9-2-6-4(3)8/h1-2,5H
