17
gdb 81816	2.16526	1.74436	1.17634	5.5445	72.79	-0.2445	0.0255	0.2699	1077.2721	0.135396	-417.98197	-417.973256	-417.972312	-418.01522	32.413	
C	-0.148080185	 1.483296947	 0.0680076305	-0.505492
C	 0.1475535675	 0.021995135	 0.008700027	 0.417872
O	-0.6760527887	-0.8858490016	 0.7479727494	-0.278845
C	 0.7449446401	-0.936152158	 0.9540863466	-0.074351
C	 1.304633572	-1.8274334055	-0.1783046522	-0.004491
N	 0.8645884439	-3.189238266	-0.3224774768	-0.503288
C	 0.6837540272	-0.7796497477	-1.2054294798	-0.264781
C	-0.3072617356	-1.255689762	-2.1545836701	 0.307785
N	-1.1087914965	-1.621978463	-2.9026282211	-0.334596
H	 0.7042677318	 2.0677009103	-0.2923159408	 0.130246
H	-1.0141589616	 1.7255625334	-0.5570794381	 0.150248
H	-0.3723424067	 1.7816061515	 1.0951013431	 0.14265
H	 1.1025239905	-0.7980359937	 1.9690317295	 0.110595
H	 2.3959910808	-1.7881529093	-0.2283231621	 0.095293
H	 1.3384081384	-3.7952384789	 0.3390276278	 0.233715
H	-0.1334326533	-3.2489817165	-0.1399547156	 0.250905
H	 1.4747481852	-0.2440765048	-1.7369753073	 0.126536
96.0956	124.5062	168.3407	193.622	233.2062	297.5635	336.5733	383.8315	397.6578	543.0439	560.7446	596.3849	727.8925	734.9629	812.0247	826.8408	865.5401	886.1896	935.7906	1008.309	1026.4451	1050.8577	1091.0745	1137.0152	1146.2625	1187.5582	1238.6829	1249.0841	1272.5508	1324.7167	1406.8947	1415.5557	1468.5147	1483.8684	1495.1494	1657.3046	2357.4213	3040.3481	3075.6323	3088.0467	3105.3848	3127.5672	3176.664	3496.767	3583.3115
CC12OC1C(N)C2C#N	C[C@]12O[C@H]1[C@@H](N)[C@H]2C#N	
InChI=1S/C6H8N2O/c1-6-3(2-7)4(8)5(6)9-6/h3-5H,8H2,1H3	InChI=1S/C6H8N2O/c1-6-3(2-7)4(8)5(6)9-6/h3-5H,8H2,1H3/t3-,4+,5+,6-/m1/s1
