19
gdb 117128	3.05799	0.80882	0.6964	4.3849	74.53	-0.2561	-0.0508	0.2053	1650.0708	0.154906	-460.188238	-460.177743	-460.176799	-460.225685	36.087	
C	-0.0479096043	 1.5239124435	 0.0578031101	-0.389382
C	 0.0110693369	-0.0050116078	 0.0343891121	-0.164627
C	-1.3791960034	-0.6437073899	 0.0676023597	-0.295304
C	-1.3621021481	-2.1554867508	 0.0540991573	 0.339731
O	-0.3454463463	-2.8123675476	 0.0833372609	-0.310346
C	-2.7047803219	-2.9216610713	-0.0024467101	-0.036999
O	-2.4867662076	-4.2793877773	-0.1591224576	-0.407486
C	-3.5349301729	-2.602811972	 1.2543764511	 0.131299
O	-3.7488995581	-3.3890185062	 2.1319577942	-0.215679
H	 0.9571663004	 1.9545338488	 0.0312225875	 0.12295
H	-0.6004948606	 1.9166019576	-0.8031266453	 0.116599
H	-0.5427679332	 1.8913694432	 0.9637444738	 0.117893
H	 0.5392486877	-0.3497132556	-0.8609667093	 0.117621
H	 0.5927478311	-0.3757822245	 0.8844841144	 0.121352
H	-1.9326406397	-0.3223584213	 0.9631226191	 0.134761
H	-1.9923709616	-0.301971342	-0.7781493784	 0.129594
H	-3.2786855756	-2.5116780305	-0.8528499684	 0.109085
H	-1.532272013	-4.407129834	-0.0318127266	 0.30048
H	-3.9392818298	-1.563811252	 1.2793235956	 0.078457
25.8229	56.4613	82.5674	104.659	135.1282	241.7257	255.2568	285.0633	320.2785	349.8137	401.9554	435.7493	529.8898	681.7679	729.4743	764.3675	806.4869	858.478	900.1261	908.2647	988.6937	1044.6069	1051.5996	1109.665	1139.4826	1182.401	1216.2967	1256.1229	1322.2252	1326.5402	1343.896	1398.1474	1408.2377	1416.2743	1423.8572	1445.6381	1487.7336	1500.1864	1507.6519	1793.4646	1853.6539	2853.1354	2957.3034	3006.479	3030.9579	3036.8227	3052.5133	3079.0911	3103.6464	3109.5348	3676.5741
CCCC(=O)C(O)C=O	CCCC(=O)[C@@H](O)C=O	
InChI=1S/C6H10O3/c1-2-3-5(8)6(9)4-7/h4,6,9H,2-3H2,1H3	InChI=1S/C6H10O3/c1-2-3-5(8)6(9)4-7/h4,6,9H,2-3H2,1H3/t6-/m0/s1
