20
gdb 82757	2.20089	2.17257	1.52482	1.5524	77.35	-0.2278	0.0759	0.3037	966.1479	0.172157	-403.101693	-403.09405	-403.093106	-403.133215	31.27	
C	-0.0610139684	 1.5216126886	-0.0539344691	-0.423646
C	 0.0612904525	 0.0028570623	 0.0202289567	-0.003476
C	 1.0665086664	-0.616151158	-0.9733497753	 0.033991
O	 2.3117589184	 0.045702271	-0.5982474003	-0.291047
C	 2.243708232	-0.766493595	 0.5733058664	 0.071314
C	 1.5004324033	-1.9070798851	-0.1263099451	-0.05555
N	 0.6368801155	-2.090630948	 1.0398903555	-0.346028
C	 0.7909987734	-0.6157044408	 1.2553573582	 0.280513
C	 0.5556798058	-0.0776739096	 2.6417276828	-0.509908
H	 0.922550695	 1.9937625664	-0.0118214121	 0.137841
H	-0.5427922712	 1.8274151179	-0.9891237967	 0.111705
H	-0.6698520506	 1.9072642955	 0.7701848789	 0.112063
H	-0.9303154609	-0.4582556079	-0.0725832296	 0.05958
H	 0.8702222368	-0.6053992656	-2.0448305147	 0.075083
H	 3.1449058106	-0.8202367984	 1.1808463923	 0.089394
H	 1.9479645983	-2.7637654034	-0.6278920354	 0.083272
H	-0.3197601573	-2.3799326612	 0.8338813956	 0.205609
H	 1.14723923	-0.6334301448	 3.3747825995	 0.126952
H	 0.8326096953	 0.9795331325	 2.7023255754	 0.125807
H	-0.4993645748	-0.1631936564	 2.9283079069	 0.116532
183.1564	207.3615	212.9626	229.8177	291.146	344.4466	493.7002	518.3773	549.6978	642.4426	703.402	730.3907	787.4465	802.6547	847.3826	851.0697	873.4179	923.1137	967.6866	987.6946	1023.9921	1039.9187	1051.4192	1068.5609	1093.2381	1118.542	1134.1787	1156.6135	1175.591	1213.871	1248.9624	1266.6309	1290.12	1306.0211	1338.6378	1349.4402	1374.1807	1404.5068	1414.0456	1481.6634	1494.604	1496.0436	1507.2094	3024.0049	3029.3448	3037.5644	3092.3242	3094.4188	3113.8769	3125.6598	3133.0362	3133.5321	3147.3028	3441.7541
CC1C2OC3C2NC13C	C[C@H]1[C@H]2O[C@@H]3[C@H]2N[C@]13C	
InChI=1S/C7H11NO/c1-3-5-4-6(9-5)7(3,2)8-4/h3-6,8H,1-2H3	InChI=1S/C7H11NO/c1-3-5-4-6(9-5)7(3,2)8-4/h3-6,8H,1-2H3/t3-,4-,5+,6+,7+/m0/s1
