21
gdb 40714	5.45739	0.8549	0.81297	1.8611	85.26	-0.2134	0.0779	0.2913	1477.2725	0.183111	-383.195637	-383.187111	-383.186167	-383.229248	32.872	
C	-0.1683663002	 1.3776743622	-0.1543265067	-0.275926
C	 1.2693492534	 0.9832820594	 0.0813643231	-0.277092
C	 0.2050217737	-0.0768909321	-0.0368427571	 0.063038
N	-0.1816811107	-0.773434034	 1.143907756	-0.080036
C	 0.5358349443	-2.0194970579	 1.5010318684	-0.246367
C	-0.8155150081	-2.6411139426	 1.8662780414	 0.33753
C	-1.1939158379	-4.0577944377	 2.0053805851	-0.30773
N	-1.2211025213	-3.1453400046	 3.1711938252	-0.354558
C	-1.4971688091	-1.4615696346	 1.1718915869	-0.225955
H	-0.7081912536	 1.8109375438	 0.6794175982	 0.119907
H	-0.4498703357	 1.7577793436	-1.1298697081	 0.109896
H	 1.9780730053	 1.0914574186	-0.7319881371	 0.109434
H	 1.6769560302	 1.1577409419	 1.07019864	 0.11785
H	 0.1985206279	-0.6566644786	-0.9679756552	 0.062684
H	 1.0205635696	-2.5132824928	 0.643326953	 0.089596
H	 1.273633142	-1.9066005021	 2.3054769198	 0.099694
H	-2.1706620626	-4.4017263539	 1.6744597844	 0.119125
H	-0.4070011398	-4.8062193897	 1.9412008499	 0.110395
H	-0.4043326222	-3.3028969026	 3.7576346451	 0.229401
H	-2.2750673593	-0.941276274	 1.7394734987	 0.112343
H	-1.8820156857	-1.7140297323	 0.1712414388	 0.086773
61.8602	80.5049	166.9771	236.2802	284.1171	327.0458	346.5602	396.4913	487.1236	546.2572	690.6732	784.8533	824.1095	830.7148	869.3113	893.4429	917.7125	930.1132	956.1332	970.1698	995.1463	1044.5936	1053.4109	1070.5993	1074.1358	1104.808	1110.8544	1125.4486	1131.7764	1137.7938	1178.3975	1195.8801	1215.9787	1253.2931	1269.1664	1269.8876	1298.4887	1337.373	1400.2039	1442.7859	1455.5667	1494.3948	1496.1902	1517.2032	1523.5626	2968.3815	2981.2866	3015.01	3034.9259	3071.0545	3098.5371	3138.2785	3143.0308	3181.5452	3222.5134	3236.0267	3488.3881
C1CC1N1CC2(CN2)C1	C1CC1N1C[C@]2(CN2)C1	
InChI=1S/C7H12N2/c1-2-6(1)9-4-7(5-9)3-8-7/h6,8H,1-5H2	InChI=1S/C7H12N2/c1-2-6(1)9-4-7(5-9)3-8-7/h6,8H,1-5H2
