25
gdb 57477	2.79884	1.16237	1.02764	0.1376	94.02	-0.2329	0.0285	0.2614	1338.135	0.228591	-352.380188	-352.370249	-352.369305	-352.414426	38.946	
C	-0.0465597403	 1.5765339909	 0.1973981575	-0.406592
C	-0.0150146514	 0.0437600295	 0.0523729923	 0.248038
C	 0.6826369157	-0.5586407001	 1.2880864746	-0.40853
C	-1.4559144601	-0.4978795888	-0.0031207946	-0.404114
C	 0.751765049	-0.400624732	-1.23054726	 0.002953
C	 0.0997702024	-0.0088514565	-2.5888984123	-0.240056
C	 1.2726735408	 0.2621698779	-3.5650149051	-0.261838
C	 2.4375151476	 0.5010652174	-2.6358167262	-0.075793
C	 2.1594663145	 0.1429647653	-1.3839709731	-0.074514
H	 0.9640957975	 1.9949200855	 0.2368182755	 0.112885
H	-0.5723812448	 2.0583789154	-0.6327721031	 0.110476
H	-0.5641704148	 1.8611790353	 1.1198913891	 0.105753
H	 0.1354928401	-0.3049397529	 2.2026893229	 0.106375
H	 0.7312206842	-1.6514103032	 1.2217922443	 0.106614
H	 1.7044142849	-0.1841550311	 1.4044207054	 0.110267
H	-2.0161260535	-0.0762117119	-0.8431127633	 0.111126
H	-1.464432851	-1.5888208132	-0.1086297598	 0.105232
H	-1.9988329167	-0.2484799007	 0.9152671156	 0.104863
H	 0.8129802483	-1.4999974427	-1.1717982292	 0.068202
H	-0.5861142645	-0.7750283873	-2.9582232546	 0.09523
H	-0.4825706871	 0.909613304	-2.4676722079	 0.103633
H	 1.4703240211	-0.6036814228	-4.2133777743	 0.103511
H	 1.0764339142	 1.1058263947	-4.2367889965	 0.099604
H	 3.3954481364	 0.8758306348	-2.9806424583	 0.087668
H	 2.8649052776	 0.1805958524	-0.5613752889	 0.089006
78.2031	91.3493	197.7282	221.4483	251.2573	260.8592	275.8176	328.2359	341.4057	359.2264	406.7252	450.2703	527.3239	587.5713	738.0351	762.9757	791.1846	852.604	863.284	928.1231	933.8432	937.0648	957.896	966.8175	974.5434	1008.8953	1018.2522	1037.5297	1063.8418	1087.6924	1136.2296	1168.5907	1212.6028	1234.2365	1242.5433	1268.0112	1299.6587	1311.815	1326.1482	1349.0428	1385.8061	1399.3069	1400.8813	1432.4972	1477.2552	1483.4526	1484.8375	1487.7371	1498.8632	1507.205	1509.9858	1517.8218	1685.4375	2957.3815	3003.9724	3023.0428	3026.8196	3034.6426	3046.0176	3061.1046	3086.4768	3091.3073	3096.4499	3099.6465	3102.7493	3103.6406	3106.9109	3177.0276	3202.7831
CC(C)(C)C1CCC=C1	CC(C)(C)[C@H]1CCC=C1	
InChI=1S/C9H16/c1-9(2,3)8-6-4-5-7-8/h4,6,8H,5,7H2,1-3H3	InChI=1S/C9H16/c1-9(2,3)8-6-4-5-7-8/h4,6,8H,5,7H2,1-3H3/t8-/m1/s1
