15
gdb 48683	3.68194	1.20782	1.07822	2.2729	66.94	-0.2585	-0.045	0.2134	1094.8253	0.113891	-453.969027	-453.961413	-453.960469	-454.001439	28.246	
O	-0.4975347294	 0.7052432144	 0.7344754775	-0.260134
C	 0.2075418442	 0.9768047998	-0.2052867048	 0.114683
C	 1.3530437299	 1.921941689	-0.1293317372	 0.213291
C	 1.7921566666	 2.4671023451	 1.2242359108	-0.252011
N	 2.3950808014	 3.7459209268	 0.8847471523	-0.339624
C	 2.1461458665	 4.1921485581	-0.3906948699	 0.43513
O	 2.3624723996	 5.2987219233	-0.8271594652	-0.3689
C	 1.5617567967	 3.0144864118	-1.1491664212	-0.199283
N	 2.3573043934	 1.7898436891	-1.1902053326	-0.358862
H	 0.0580000948	 0.5383976864	-1.2139425461	 0.099405
H	 0.914646415	 2.5700147194	 1.8725678143	 0.146668
H	 2.5054459488	 1.7996987591	 1.7228229962	 0.126604
H	 2.773981392	 4.3748056648	 1.5747128001	 0.261895
H	 0.9151858328	 3.2097384885	-1.9964675579	 0.129062
H	 3.2942224576	 1.9438334843	-0.8209095263	 0.252077
85.7668	146.5499	195.2541	218.2486	335.5174	384.9979	462.9469	487.5235	513.9099	619.6489	705.4908	750.7392	783.2739	808.0576	893.3091	969.6302	1013.5028	1035.0488	1068.2325	1069.7281	1118.2909	1150.1261	1204.4027	1239.2756	1283.428	1318.7087	1340.3085	1388.9797	1428.6195	1444.4409	1526.5351	1816.5354	1836.9999	2925.3717	3030.7433	3070.2314	3194.2138	3481.6126	3645.969
O=CC12CNC(=O)C1N2	O=C[C@]12CNC(=O)[C@H]1N2	
InChI=1S/C5H6N2O2/c8-2-5-1-6-4(9)3(5)7-5/h2-3,7H,1H2,(H,6,9)	InChI=1S/C5H6N2O2/c8-2-5-1-6-4(9)3(5)7-5/h2-3,7H,1H2,(H,6,9)/t3-,5-/m1/s1
