19
gdb 26223	3.32697	1.05388	0.97042	1.9745	79.14	-0.1991	0.0328	0.2319	1315.5295	0.159756	-419.257174	-419.247988	-419.247044	-419.29125	34.184	
C	-0.0324612784	 1.556527657	-0.0834617119	-0.384279
C	-0.0281466921	 0.0153603087	-0.0610194718	-0.094401
C	-1.4645485093	-0.5432012954	-0.043257471	-0.384041
C	 0.7707402402	-0.5510804842	-1.1848305996	 0.348191
C	 1.8828766927	-1.3075424556	-1.3017749708	-0.220953
N	 2.1885465521	-1.5279570973	-2.6469893368	-0.337936
C	 1.2424596314	-0.9029400064	-3.273242095	 0.443446
N	 1.0101152368	-0.8542264547	-4.6272683916	-0.588203
O	 0.3392135245	-0.2805802975	-2.4829393079	-0.226104
H	 0.9858633126	 1.9539243087	-0.0446483056	 0.118202
H	-0.5058311304	 1.9281724179	-0.9976837938	 0.123343
H	-0.5899760459	 1.9529508878	 0.7711251224	 0.111151
H	 0.4788571953	-0.3124609658	 0.8549939849	 0.090946
H	-1.999269616	-0.2635779296	-0.9563437175	 0.125743
H	-1.4613126647	-1.6348032681	 0.0242431574	 0.119968
H	-2.021943894	-0.1461901475	 0.8111991341	 0.110191
H	 2.4985501802	-1.7115248752	-0.5131994048	 0.114007
H	 1.827469906	-1.1001240861	-5.1663770515	 0.269273
H	 0.564001399	-0.0061491166	-4.9458967293	 0.261455
54.889	117.4706	159.219	223.719	257.5131	264.094	296.9578	320.5898	411.5598	424.3851	496.1134	614.6849	629.2684	683.9693	742.1594	773.0089	851.5205	880.568	927.4029	960.0312	975.8372	991.1349	1060.9071	1091.3834	1119.6814	1176.9278	1196.1288	1251.1866	1254.1264	1327.2811	1349.8412	1393.0786	1415.525	1441.0867	1486.0372	1491.5058	1500.6146	1511.7242	1604.0048	1658.5161	1681.5551	3033.4579	3034.5864	3038.3551	3105.3293	3110.5499	3112.8887	3116.2243	3256.4777	3571.2311	3678.6802
CC(C)C1=CN=C(N)O1	CC(C)c1cnc(N)o1	
InChI=1S/C6H10N2O/c1-4(2)5-3-8-6(7)9-5/h3-4H,1-2H3,(H2,7,8)	InChI=1S/C6H10N2O/c1-4(2)5-3-8-6(7)9-5/h3-4H,1-2H3,(H2,7,8)
