17
gdb 45704	3.0775	1.53202	1.07774	2.5422	74.25	-0.2474	-0.0222	0.2252	1078.273	0.137291	-421.849452	-421.842054	-421.84111	-421.881734	28.134	
O	-0.1242740162	 0.0088608596	 0.18670594	-0.297249
C	-0.0691435675	 1.2005094955	 0.0504559629	 0.369612
C	-1.2736579649	 2.1654012626	-0.069153331	-0.361175
C	-0.6674571038	 3.4998929322	 0.301946929	-0.236484
C	 0.6636001587	 3.4377011464	 0.3129633085	 0.297011
C	 1.8005132349	 4.2511874165	 0.8520208187	-0.16522
O	 2.829909661	 3.291761779	 1.1418988581	-0.270499
C	 2.3146614453	 1.9583186092	 1.0402795305	-0.087687
C	 1.1960578194	 2.0663858723	-0.0049440362	-0.197192
H	-1.6609357228	 2.1252404958	-1.097622606	 0.13756
H	-2.0952221565	 1.8483697462	 0.5826617504	 0.135869
H	-1.2663886967	 4.3560881114	 0.590457508	 0.105334
H	 2.2048165711	 4.9712218738	 0.1285622957	 0.117837
H	 1.5209029558	 4.8051783706	 1.7588031078	 0.114265
H	 3.1429493253	 1.3076688872	 0.7528578242	 0.120981
H	 1.9138692083	 1.6135702144	 2.0051558904	 0.102739
H	 1.6220791885	 1.9987968773	-1.0164310109	 0.114298
75.662	131.2782	225.2636	240.1712	309.931	455.9756	515.6003	585.1564	600.6354	665.8435	727.6529	805.6467	823.6618	900.4302	914.0068	934.6665	975.7798	1000.8459	1023.7702	1052.7906	1075.6316	1130.7051	1151.3207	1170.7578	1202.8187	1214.8849	1245.2062	1275.4469	1289.3214	1309.9762	1347.2741	1390.5684	1451.6137	1507.5081	1520.321	1732.5314	1856.8008	2992.7604	3004.9254	3008.4454	3011.9407	3033.3339	3071.2375	3107.4495	3196.4274
O=C1CC=C2COCC12	O=C1CC=C2COC[C@@H]12	
InChI=1S/C7H8O2/c8-7-2-1-5-3-9-4-6(5)7/h1,6H,2-4H2	InChI=1S/C7H8O2/c8-7-2-1-5-3-9-4-6(5)7/h1,6H,2-4H2/t6-/m1/s1
