19
gdb 126982	3.15504	1.06231	0.80678	1.683	79.8	-0.1999	0.0267	0.2266	1430.5916	0.159409	-419.226754	-419.21723	-419.216285	-419.262196	33.61	
C	-0.0515146499	 1.5390994681	 0.0398804654	-0.391439
C	 0.0077334264	 0.0226543103	 0.0191820902	-0.049879
O	-1.3261018438	-0.4696386517	 0.0236590986	-0.282009
C	-1.4582220228	-1.8217412569	 0.0035541435	 0.215106
C	-2.6834375893	-2.4677840403	-0.0024431875	 0.248605
C	-4.0706870577	-1.9221750494	 0.01042956	-0.512934
N	-2.3731196734	-3.7942691455	-0.0230870219	-0.245883
N	-1.0556622589	-4.0511658056	-0.0308866317	-0.234871
C	-0.4837496083	-2.8462534179	-0.014666265	-0.121986
H	 0.9598522604	 1.9560222588	 0.0369268359	 0.118909
H	-0.5850109134	 1.9154912857	-0.8374101795	 0.129328
H	-0.5700975059	 1.8919500481	 0.9356989803	 0.12938
H	 0.533842722	-0.3374558363	-0.8773439261	 0.102892
H	 0.5484628632	-0.3609021576	 0.8970996472	 0.102889
H	-4.6461336688	-2.2340650847	-0.8693215038	 0.131455
H	-4.6303889969	-2.2341201841	 0.9003571322	 0.131938
H	-4.0240435637	-0.8311513009	 0.0103269764	 0.153456
H	-3.0178511998	-4.5662231598	-0.0331188735	 0.26812
H	 0.5917023105	-2.7632401702	-0.0169005408	 0.106922
51.1438	69.5846	89.909	133.2065	233.4837	244.0725	263.8025	341.2853	348.0384	480.0954	496.1946	645.3397	675.2953	700.7291	759.6345	824.2758	846.555	921.1651	953.8575	1001.8173	1062.8836	1081.9694	1131.8311	1149.5329	1187.0241	1196.3577	1267.7759	1296.4701	1314.5968	1386.4323	1398.3829	1411.5858	1424.8054	1452.0228	1483.4958	1486.7446	1491.4867	1500.8997	1527.3894	1543.2503	1649.9594	2985.8534	3019.1337	3023.4012	3046.5847	3070.519	3121.7526	3123.8558	3130.8661	3255.8604	3670.3634
CCOC1=C(C)NN=C1	CCOc1c(C)[nH]nc1	
InChI=1S/C6H10N2O/c1-3-9-6-4-7-8-5(6)2/h4H,3H2,1-2H3,(H,7,8)	InChI=1S/C6H10N2O/c1-3-9-6-4-7-8-5(6)2/h4H,3H2,1-2H3,(H,7,8)
