15
gdb 34753	3.02933	1.7343	1.53887	4.2487	67.55	-0.2566	0.0032	0.2598	884.4188	0.114939	-416.763164	-416.75659	-416.755645	-416.794177	25.696	
N	-0.2389063468	-1.188909082	-0.3307035962	-0.329272
C	-0.1299788915	-0.0495939468	-0.1684323157	 0.314529
C	 0.0043718423	 1.3880617661	 0.0340978158	-0.156095
C	-0.2491644828	 1.9942382562	 1.4545552189	 0.070116
O	 0.0673684326	 1.0841079508	 2.4774852991	-0.248187
C	 1.450706908	 0.729157549	 2.3015450271	-0.122022
C	 2.0096446135	 1.7778320489	 1.3532636861	-0.048065
C	 1.0127834573	 2.8433116725	 1.179839249	-0.071297
N	 1.395924659	 1.9735256746	 0.0006783106	-0.154234
H	-0.5779836565	 1.9107387221	-0.7300505207	 0.137169
H	-1.2169158494	 2.449354749	 1.6557175345	 0.107981
H	 1.9531631283	 0.7739692019	 3.2738499015	 0.12322
H	 1.5325254405	-0.2901569652	 1.9098315011	 0.142624
H	 3.0717456361	 1.9911072468	 1.3532760692	 0.11983
H	 1.1553782994	 3.9152612061	 1.2055988596	 0.113702
136.3051	148.078	269.4504	376.8408	400.639	540.493	597.4303	668.5686	690.8131	794.1015	801.2511	842.7454	858.2687	901.6381	939.6866	963.7653	991.249	1040.7467	1043.2371	1057.9072	1083.4366	1111.4321	1184.5872	1203.2969	1225.1923	1249.9842	1269.728	1323.2452	1342.8566	1366.2418	1404.9403	1517.7595	2352.9893	3042.8764	3076.0935	3083.7181	3144.856	3194.9994	3211.0084
N#CC1C2OCC3C2N13	N#C[C@H]1[C@H]2OC[C@@H]3[C@H]2N13	
InChI=1S/C6H6N2O/c7-1-3-6-5-4(2-9-6)8(3)5/h3-6H,2H2	InChI=1S/C6H6N2O/c7-1-3-6-5-4(2-9-6)8(3)5/h3-6H,2H2/t3-,4+,5+,6+,8?/m0/s1
