16
gdb 17849	4.82076	1.79031	1.54799	1.871	64.11	-0.2432	0.0731	0.3162	828.761	0.130758	-383.635809	-383.629324	-383.62838	-383.666676	24.911	
O	 0.0169888357	 1.3654442842	-0.4436082178	-0.27789
C	 1.3536523893	 1.5577357048	 0.0607180861	-0.177225
C	 1.3487952758	 0.148431691	 0.671853457	 0.377579
C	-0.0659857485	 0.0270260669	 0.1025166874	-0.161633
C	 2.4315696045	-0.9458052171	 0.5703351473	-0.024688
C	 3.2485103473	-0.2307301722	 1.672156869	-0.233753
C	 1.7613542585	-0.2826030394	 2.0945450575	-0.024705
O	 1.7066882259	-1.692868885	 1.630390743	-0.318543
H	 2.0798632766	 1.7303368399	-0.7447721853	 0.104001
H	 1.4119193881	 2.3910332597	 0.7736093891	 0.103995
H	-0.8727427154	-0.0690174305	 0.8391471365	 0.10879
H	-0.205206488	-0.7298080177	-0.678839984	 0.1088
H	 2.7709240404	-1.5072074957	-0.3010849984	 0.099476
H	 3.911891968	-0.878534293	 2.2457227548	 0.113147
H	 3.6897375464	 0.7428327322	 1.4425607862	 0.103178
H	 1.2961855154	-0.0478993882	 3.0527930616	 0.099473
81.549	195.7251	237.5794	341.0155	432.0257	546.9696	647.4812	730.4156	787.6516	861.1298	862.8183	880.7455	923.0306	961.8504	975.2054	1015.5696	1025.2893	1030.2548	1098.7029	1120.9196	1138.5241	1153.0112	1166.5471	1171.9711	1183.466	1210.816	1219.7949	1271.1588	1306.8738	1330.9859	1398.762	1485.7829	1505.7112	1530.9456	3000.0861	3020.7928	3040.7504	3061.4355	3063.5077	3111.6427	3117.3426	3150.3948
O1CC2(C1)C1CC2O1	O1CC2(C1)[C@H]1C[C@@H]2O1	
InChI=1S/C6H8O2/c1-4-6(2-7-3-6)5(1)8-4/h4-5H,1-3H2	InChI=1S/C6H8O2/c1-4-6(2-7-3-6)5(1)8-4/h4-5H,1-3H2/t4-,5+
