18
gdb 89942	2.71838	1.41789	1.11423	2.1968	79.93	-0.2178	0.0158	0.2336	1140.8369	0.145924	-401.856466	-401.847943	-401.846999	-401.889464	32.431	
C	-0.1107932386	 1.5417591682	 0.161725053	-0.328636
N	 0.0345050573	 0.1030951157	 0.1238208155	-0.080182
C	-1.1685923707	-0.7135035796	 0.4128968849	-0.226701
C	-0.3448670721	-1.5918134765	 1.3869221142	 0.245729
O	 0.4527074748	-2.599239669	 0.7188461049	-0.331359
C	 1.6225537894	-1.7383980115	 0.6868518277	-0.083516
C	 0.8061204247	-0.5477018623	 1.2018404097	-0.104724
C	-0.9388989331	-2.0316705739	 2.6213327467	 0.277397
C	-1.4452000074	-2.3831892286	 3.653981944	-0.42617
H	 0.8670003009	 2.016988467	 0.0313366322	 0.123044
H	-0.7506893805	 1.8660941261	-0.6655267893	 0.126552
H	-0.5553910859	 1.9200694064	 1.1019845251	 0.093901
H	-1.955154944	-0.1577918177	 0.9441411971	 0.100768
H	-1.596595285	-1.2316713529	-0.4506424563	 0.117622
H	 2.3944407715	-2.101611149	 1.3773853249	 0.103515
H	 2.0301743504	-1.6283886281	-0.32216752	 0.11094
H	 1.2016625694	 0.0973949332	 1.9887729138	 0.084771
H	-1.8895579411	-2.7021225774	 4.5644440218	 0.19705
84.4442	143.8298	188.9507	208.241	267.9489	300.7447	365.1027	397.3191	474.9905	521.5715	573.4106	623.6619	663.4557	683.585	760.0897	878.7811	929.1641	948.3386	992.3081	1012.589	1033.0914	1069.0676	1083.1206	1101.3008	1148.622	1159.9727	1177.4592	1211.4724	1231.1932	1269.3895	1313.9254	1337.3323	1353.9834	1455.28	1482.9884	1499.9252	1502.3805	1503.7963	2233.7704	2925.1534	2996.1791	3017.9805	3058.0247	3081.131	3091.1424	3095.4374	3101.1464	3500.5369
CN1CC2(OCC12)C#C	CN1C[C@]2(OC[C@@H]12)C#C	
InChI=1S/C7H9NO/c1-3-7-5-8(2)6(7)4-9-7/h1,6H,4-5H2,2H3	InChI=1S/C7H9NO/c1-3-7-5-8(2)6(7)4-9-7/h1,6H,4-5H2,2H3/t6-,7-/m1/s1
