17
gdb 32327	3.24809	1.22651	0.90571	2.4359	72.26	-0.1894	0.0279	0.2174	1239.0624	0.135661	-455.157644	-455.148519	-455.147575	-455.19202	32.57	
C	 0.0253582829	 1.430147041	 0.0199649919	-0.347173
N	 0.0530070811	-0.0155940078	 0.0429214689	-0.154897
C	-0.0527140599	-0.7890598796	-1.0995867892	 0.461937
N	-0.1702567819	-0.3547480895	-2.2864595465	-0.618895
O	-0.0081120013	-2.1017015375	-0.6869393334	-0.219445
C	 0.1191930162	-2.1132178064	 0.6937436651	-0.147084
C	 0.1549965307	-0.8566893515	 1.1554776733	 0.233167
C	 0.2671768569	-0.3644046193	 2.5642723811	-0.167028
O	 0.0743938412	-1.4046678247	 3.5009681994	-0.400549
H	 0.8873169744	 1.8492078283	 0.5493915391	 0.131912
H	 0.0649791233	 1.7320647547	-1.0273601478	 0.183677
H	-0.8934258122	 1.8270729381	 0.467691227	 0.131347
H	-0.2205388378	-1.1217982611	-2.9501318761	 0.225056
H	 0.1927729304	-3.0716512585	 1.17301373	 0.15589
H	 1.2713213517	 0.032035609	 2.7596940648	 0.137756
H	-0.4341255449	 0.4712426597	 2.7248063852	 0.106792
H	-0.8087597308	-1.7622811249	 3.3561617972	 0.287537
80.0674	85.6104	116.412	167.0527	183.0005	274.7306	301.4023	360.5329	390.3267	539.2297	582.0798	635.7563	687.1632	701.0705	741.013	752.7717	801.0062	970.0435	994.6175	1006.608	1077.3579	1102.5482	1156.9476	1180.7086	1202.1017	1210.7907	1266.8156	1343.0433	1382.8677	1409.7306	1437.981	1480.3249	1495.5162	1503.506	1511.4323	1704.9621	1773.5381	2967.1938	3024.221	3045.1015	3081.1845	3151.1821	3315.0789	3552.1034	3801.5553
CN1C(=N)OC=C1CO	CN1[C@H]([NH])OC=C1CO	
InChI=1S/C5H8N2O2/c1-7-4(2-8)3-9-5(7)6/h3,6,8H,2H2,1H3	InChI=1S/C5H9N2O2/c1-7-4(2-8)3-9-5(7)6/h3,5-6,8H,2H2,1H3/t5-/m0/s1
