18
gdb 11289	3.86262	1.43373	1.2709	1.835	73.12	-0.2503	0.0414	0.2917	1026.8203	0.153259	-347.777624	-347.769364	-347.76842	-347.81071	30.527	
C	-0.3201549254	 1.3202824459	-0.0594408337	-0.415836
C	 0.1299985325	-0.1286583903	 0.107024486	 0.014078
C	 0.9302174756	-0.6809413444	-1.084447469	-0.066419
O	 1.8197835538	-1.6791046924	-0.5761377474	-0.261451
C	 1.7428578065	-1.7248237817	 0.8529347573	-0.066791
C	 1.1068676981	-0.3837198374	 1.2655218897	-0.239407
C	 0.9602799852	-2.8818428872	 1.3055355423	 0.356933
C	 0.3168421984	-3.8247838028	 1.6825287688	-0.489521
H	 0.5401810074	 1.9865412628	-0.1909335188	 0.117014
H	-0.9692155276	 1.4365711108	-0.9339286605	 0.11909
H	-0.880896318	 1.6647134646	 0.8152143946	 0.119634
H	-0.7496426858	-0.765482881	 0.2593670231	 0.092354
H	 0.2888822645	-1.1285119347	-1.85221258	 0.10544
H	 1.5247380531	 0.1139439974	-1.5592523237	 0.092256
H	 2.7672836407	-1.8227511292	 1.2305274326	 0.106877
H	 1.8816131353	 0.3912387515	 1.2884408	 0.102048
H	 0.626905311	-0.4263469352	 2.2448167224	 0.115345
H	-0.2446283454	-4.6643961868	 2.0106652163	 0.198355
50.479	96.1109	185.6755	229.4562	250.7353	298.6679	412.6305	457.3247	535.6806	598.4859	627.6572	659.6519	757.6421	816.0496	869.3025	915.2529	931.6629	949.9525	962.8042	1017.2471	1062.3827	1116.3913	1135.3749	1166.7274	1193.8958	1253.1603	1272.571	1308.0714	1344.9714	1354.0023	1368.6799	1404.1143	1415.4519	1484.5096	1497.1187	1500.1634	1526.4366	2230.9072	2991.2112	3028.077	3030.5313	3036.3773	3050.1035	3057.867	3095.4182	3101.6084	3121.0637	3503.074
CC1COC(C1)C#C	C[C@H]1CO[C@@H](C1)C#C	
InChI=1S/C7H10O/c1-3-7-4-6(2)5-8-7/h1,6-7H,4-5H2,2H3	InChI=1S/C7H10O/c1-3-7-4-6(2)5-8-7/h1,6-7H,4-5H2,2H3/t6-,7-/m1/s1
