16
gdb 32478	4.83766	0.97442	0.83635	2.6856	70.75	-0.2054	0.0337	0.2391	1364.1048	0.122411	-475.018096	-475.008953	-475.008009	-475.053332	31.258	
C	 0.0875029928	 1.4151927574	 0.0689352792	-0.25967
O	-0.3041583878	 0.0528535434	 0.3128236624	-0.26578
C	 0.4800385421	-0.6326092986	 1.1329347968	 0.388708
C	 1.0000075329	-1.8544203302	 1.0594727255	-0.194132
O	 1.6525348028	-2.1252985776	 2.2613041672	-0.230113
C	 1.5444077151	-0.9983090489	 3.0382166871	 0.537569
O	 0.7987691162	-0.0672810104	 2.3558684473	-0.257638
N	 2.0158982551	-0.7805186269	 4.1746899963	-0.359116
C	 2.797937991	-1.8152473052	 4.8277679792	-0.329397
H	 1.0779895546	 1.4493671531	-0.3979063498	 0.133293
H	-0.6595981576	 1.8196888107	-0.6135666013	 0.146522
H	 0.0959239244	 1.988767007	 0.9988798013	 0.156833
H	 0.9846601308	-2.6205191575	 0.3077191252	 0.15959
H	 3.1479413061	-2.6059682475	 4.1528794367	 0.120769
H	 3.6680320164	-1.3543600405	 5.3060649524	 0.125925
H	 2.2055628252	-2.2836040583	 5.6234692946	 0.126637
41.7322	68.6334	100.9544	151.9151	186.4229	231.2461	264.6826	367.3513	437.6557	545.5889	628.1872	675.3492	703.9119	723.8337	739.8451	882.2805	950.7849	1032.6431	1079.6062	1102.0968	1124.9736	1137.0125	1174.8979	1196.1174	1205.3312	1312.6194	1320.3074	1448.0177	1480.1015	1487.6894	1494.1578	1502.5125	1503.7057	1773.4602	1851.0758	3011.4874	3036.6883	3069.0108	3087.7315	3119.3496	3160.9616	3320.073
COC1=COC(O1)=NC	COc1coc(=NC)o1	
InChI=1S/C5H7NO3/c1-6-5-8-3-4(7-2)9-5/h3H,1-2H3	InChI=1S/C5H7NO3/c1-6-5-8-3-4(7-2)9-5/h3H,1-2H3
