19
gdb 53059	4.57156	0.73215	0.66962	2.3285	92.9	-0.2246	-0.0192	0.2054	1713.3959	0.158518	-385.887278	-385.877557	-385.876613	-385.92407	34.455	
C	-0.0656556952	 1.433616301	-0.0506985101	-0.508213
C	 0.0061169827	-0.0185791267	-0.0356930773	 0.227714
C	 0.0824562202	-1.2238788633	-0.0295563597	-0.157128
C	 0.1088424925	-2.6388030161	-0.0028412593	 0.215324
C	 1.1321663149	-3.4353147525	-0.3558960758	-0.227028
C	 0.8410368814	-4.8925848268	-0.1063362762	 0.103932
O	 1.6266324372	-5.4104422707	 0.9715729131	-0.432734
C	-0.6888700403	-4.9082261211	 0.1566591859	-0.248798
C	-1.087556632	-3.4492958014	 0.4785891202	-0.327612
H	 0.6668785314	 1.8744896001	 0.6350639645	 0.152259
H	 0.1405290229	 1.8300982661	-1.0513984974	 0.152908
H	-1.0578019181	 1.7878574994	 0.2496262122	 0.150702
H	 2.0970394028	-3.0871351266	-0.7047021466	 0.096552
H	 1.1076260715	-5.532339084	-0.953780468	 0.084644
H	 1.5832691528	-4.7686942075	 1.6894480629	 0.273585
H	-1.2099758981	-5.2441675124	-0.7448504389	 0.10751
H	-0.9287853968	-5.6132538007	 0.9559630187	 0.107507
H	-1.2585427064	-3.2736554068	 1.5480552296	 0.112808
H	-2.0072736837	-3.1440031099	-0.0302771376	 0.116068
13.3658	76.7352	88.278	95.4227	198.7692	293.578	323.0073	357.995	389.2571	433.9895	497.0714	536.8017	552.1256	749.4752	770.4414	831.9719	884.8165	890.9464	957.4159	973.5798	991.571	1048.0712	1053.579	1065.0904	1070.532	1162.5581	1196.8141	1254.9093	1265.3112	1277.5534	1298.5817	1328.5605	1343.2315	1412.948	1429.1063	1475.2328	1475.7877	1477.2903	1496.5694	1667.612	2347.2438	3024.2984	3030.7929	3049.9693	3062.8881	3075.1459	3083.1728	3088.1192	3111.2393	3206.8629	3795.6131
CC#CC1=CC(O)CC1	CC#CC1=C[C@@H](O)CC1	
InChI=1S/C8H10O/c1-2-3-7-4-5-8(9)6-7/h6,8-9H,4-5H2,1H3	InChI=1S/C8H10O/c1-2-3-7-4-5-8(9)6-7/h6,8-9H,4-5H2,1H3/t8-/m0/s1
