19
gdb 37128	3.7062	1.55292	1.47534	1.6013	76.99	-0.2026	0.0675	0.2701	958.9865	0.161494	-385.810765	-385.803991	-385.803046	-385.841404	28.752	
C	 0.0038596672	 1.4861528285	-0.0959050378	-0.295214
C	 1.3183067747	 0.7715776556	 0.034317806	-0.113986
C	 0.0068396393	-0.0092409562	 0.0424256711	-0.113987
C	 0.4343050117	-0.7502289049	-1.2558744148	 0.210887
C	 0.8035146951	 0.1188360127	-2.4272582038	-0.394303
C	 1.7541540112	 0.0355859927	-1.2640373491	 0.210886
C	 2.8362808773	-1.0170051546	-1.3064992865	-0.150324
O	 2.1949077852	-2.2113532592	-1.7744912945	-0.256041
C	 0.8435820395	-2.2034239432	-1.2941762763	-0.150325
H	-0.3010948534	 2.0077368895	 0.8068572591	 0.115677
H	-0.3035936242	 1.9931220951	-1.0039673438	 0.1128
H	 2.0065399993	 0.9799119781	 0.8439414979	 0.089532
H	-0.4968913506	-0.5105778781	 0.8594171088	 0.089531
H	 1.1234420304	-0.4276800651	-3.3090480246	 0.130418
H	 0.2606341408	 1.0283264619	-2.6515894652	 0.117837
H	 3.662222223	-0.8188055866	-1.9971954102	 0.109009
H	 3.2557570944	-1.1581231617	-0.2966743031	 0.089296
H	 0.7769623904	-2.6339576214	-0.2813468977	 0.089296
H	 0.2694456384	-2.838805563	-1.9762177255	 0.10901
215.2971	215.524	300.3516	307.3748	442.8877	460.5663	521.0512	611.3346	650.8625	724.7888	733.7616	808.102	853.4872	863.2308	918.1013	923.3762	949.4902	952.1249	973.8673	1001.4341	1018.4578	1025.43	1048.8255	1050.4741	1076.0367	1096.2322	1165.9652	1177.886	1211.1207	1225.8903	1228.3182	1258.9603	1306.2795	1319.2039	1357.2282	1367.1456	1389.9154	1466.2202	1506.1135	1507.0723	1518.0403	2967.6608	2973.466	3068.0945	3070.1952	3125.0527	3140.9878	3179.5917	3187.8917	3203.427	3223.4727
C1C2C1C13CC21COC3	C1[C@H]2[C@@H]1[C@@]13C[C@@]21COC3	
InChI=1S/C8H10O/c1-5-6(1)8-2-7(5,8)3-9-4-8/h5-6H,1-4H2	InChI=1S/C8H10O/c1-5-6(1)8-2-7(5,8)3-9-4-8/h5-6H,1-4H2/t5-,6+,7+,8-
