20
gdb 113867	4.0915	0.79826	0.73363	1.4691	75.41	-0.2484	0.0649	0.3133	1555.5951	0.171397	-440.222191	-440.212928	-440.211984	-440.258428	32.904	
O	-0.1466939417	 1.4087628823	-0.7544529532	-0.420339
C	 0.0206698945	 0.3123434291	 0.127884148	-0.067085
C	-1.2807437779	-0.4364339212	 0.3043481096	-0.041926
N	-1.7373492458	-1.1685828043	-0.8947414107	-0.358473
C	-1.4224737531	-1.9198529802	 0.3348063611	-0.040334
C	-0.2849971073	-2.9021946953	 0.2775953929	-0.02568
C	 0.2330539382	-3.4527031599	 1.6282244524	-0.085479
O	-0.1040881497	-4.8053941869	 1.2641739257	-0.271023
C	-0.6573654565	-4.3801502033	 0.0026172165	-0.086884
H	-0.5015354635	 1.0364963189	-1.5707019774	 0.289466
H	 0.8095354658	-0.365122214	-0.2274134196	 0.089607
H	 0.3488369144	 0.7320715919	 1.0847903036	 0.109754
H	-2.0378733989	 0.1258575383	 0.8488479046	 0.092153
H	-2.7423686158	-1.0767663767	-1.0111313262	 0.236208
H	-2.2734522712	-2.2835880508	 0.912903421	 0.088379
H	 0.5028576825	-2.5353954933	-0.3800187175	 0.090117
H	 1.3059695129	-3.3308313979	 1.8195210632	 0.103365
H	-0.3239317808	-3.1126596281	 2.5122459062	 0.097064
H	-1.7350236416	-4.5826806675	-0.064130193	 0.095884
H	-0.1547454345	-4.853288491	-0.8489223371	 0.105228
31.0491	44.3448	70.2892	142.9962	178.6288	290.253	326.186	382.2343	440.1247	497.0253	576.931	758.7016	816.312	849.5682	885.9087	908.0685	940.7739	966.5915	990.7956	995.7028	1038.4508	1051.4934	1070.7372	1077.2598	1091.7036	1155.1359	1162.8026	1164.2317	1187.0766	1250.2175	1252.6067	1271.0338	1283.0879	1308.7121	1316.6376	1366.6372	1381.9596	1408.2689	1445.0534	1486.5203	1500.4548	1511.7334	1537.5906	2998.4821	3008.5695	3009.7268	3049.1022	3054.1872	3073.9806	3090.4645	3114.5372	3122.8017	3511.0468	3789.8423
OCC1NC1C1COC1	OC[C@H]1N[C@H]1C1COC1	
InChI=1S/C6H11NO2/c8-1-5-6(7-5)4-2-9-3-4/h4-8H,1-3H2	InChI=1S/C6H11NO2/c8-1-5-6(7-5)4-2-9-3-4/h4-8H,1-3H2/t5-,6+/m1/s1
