19
gdb 34329	2.80018	1.58196	1.27934	0.7327	85.27	-0.2305	0.0407	0.2712	1051.016	0.159401	-348.668227	-348.660534	-348.65959	-348.69994	31.718	
C	-0.0092671806	-1.1897465794	 0.0108192421	-0.397726
C	-0.0109310389	 0.0141888167	 0.0120165525	 0.186489
C	-0.0164172073	 1.4517954658	 0.0112482123	 0.171345
C	-0.4554308297	 2.1831318002	-1.3071651808	-0.295063
C	 0.8803128973	 2.9926866714	-1.3092008	-0.241232
C	 1.3183839639	 2.2858205389	 0.0053657837	-0.067168
C	 0.9287472898	 2.9072025834	 1.3635983429	-0.050715
C	-0.4002532015	 3.6074046553	 1.3187341298	-0.30466
C	-0.3786998962	 2.1080187308	 1.3771015055	-0.097577
H	-0.0070236686	-2.2512671276	 0.0089443355	 0.1842
H	-0.5499038221	 1.4947923939	-2.1483487883	 0.113731
H	-1.3776030491	 2.7631268125	-1.2272058902	 0.105016
H	 1.5237181423	 2.7523824707	-2.1584243073	 0.104283
H	 0.7850318692	 4.0797745026	-1.2513812281	 0.103286
H	 2.2749832787	 1.7652095558	 0.0045905408	 0.081037
H	 1.6273508089	 3.0800047355	 2.1732178119	 0.086952
H	-0.6897568925	 4.083585442	 2.2505232384	 0.113671
H	-0.7377382089	 4.1454167251	 0.4388928601	 0.111946
H	-0.8413134746	 1.5575445463	 2.1869158392	 0.092185
133.286	145.8933	220.4856	306.8369	349.7723	458.1053	495.2459	512.8472	574.7642	599.6198	618.839	668.9378	733.7182	764.4155	786.0445	833.7681	910.0633	920.5249	937.2901	944.5339	957.1293	996.4557	1023.2491	1042.613	1063.8098	1083.4967	1112.4847	1135.6504	1141.7027	1187.8365	1211.3977	1233.8883	1246.866	1261.0828	1305.4092	1313.6287	1354.7546	1473.1034	1483.2603	1502.5413	2226.5867	3063.5055	3071.9055	3106.7812	3121.9331	3126.8359	3132.4812	3177.7289	3187.6766	3204.8473	3503.5125
C#CC12CCC1C1CC21	C#C[C@]12CC[C@H]1[C@H]1C[C@@H]21	
InChI=1S/C9H10/c1-2-9-4-3-7(9)6-5-8(6)9/h1,6-8H,3-5H2	InChI=1S/C9H10/c1-2-9-4-3-7(9)6-5-8(6)9/h1,6-8H,3-5H2/t6-,7+,8-,9+/m1/s1
