23
gdb 79891	3.69424	1.31346	1.13701	0.0868	89.63	-0.2781	0.0914	0.3694	1185.1195	0.209224	-351.128847	-351.121148	-351.120203	-351.160508	32.064	
C	-0.238885937	 1.6038869073	-0.0515411517	-0.447266
C	-0.0091085422	 0.100248387	 0.0081215614	 0.053897
C	 1.1860298351	-0.5939952426	-0.7160563357	-0.06668
C	 2.1333757707	-0.0568773224	 0.4023017124	 0.028724
C	 3.4603817683	-0.7807675224	 0.6386548238	-0.244913
C	 3.2231594586	-2.2071882512	 1.1489530699	-0.192442
C	 2.0461932744	-2.8440112785	 0.3995124062	-0.248208
C	 0.9207918119	-1.830404985	 0.1984253191	 0.032409
C	 0.8409427999	-0.5704545954	 1.1316395431	-0.091951
H	 0.6652023879	 2.1954034842	 0.1118051587	 0.118214
H	-0.6464766035	 1.887454455	-1.0284634661	 0.114488
H	-0.9709302008	 1.9068430219	 0.7056499411	 0.114479
H	-0.9613697127	-0.4173001332	-0.1635155286	 0.056112
H	 1.3896712328	-0.6124841537	-1.7906246105	 0.05381
H	 2.2747952973	 1.0254579543	 0.404790591	 0.055532
H	 4.0289778371	-0.7956790998	-0.301707997	 0.092756
H	 4.0722140881	-0.2208609088	 1.3554614132	 0.090551
H	 4.1279569726	-2.8187450505	 1.0705063894	 0.086381
H	 2.9709006917	-2.1579747539	 2.2154683788	 0.097862
H	 2.369246012	-3.2178117432	-0.5819681075	 0.093055
H	 1.6745679264	-3.7154646636	 0.9508972673	 0.091258
H	-0.0425512989	-2.3193129529	 0.0158261657	 0.053687
H	 0.6341141104	-0.5547141329	 2.2047819661	 0.058245
173.4539	181.0356	228.1274	249.6735	272.5632	389.8765	442.2532	509.7204	558.6318	658.9589	759.0092	775.1419	782.0179	802.6219	849.0321	874.8139	896.2762	904.4174	981.7555	1004.087	1018.6675	1044.0386	1045.9963	1056.5207	1069.2653	1084.0891	1121.7132	1143.1406	1157.972	1167.6901	1188.7343	1208.4936	1220.5095	1241.0581	1246.0559	1272.348	1302.8337	1343.8258	1362.2629	1363.1218	1390.943	1403.0126	1423.4096	1443.3137	1486.5505	1487.5412	1497.1786	1502.1932	1504.7875	3009.8672	3010.7577	3019.7784	3023.961	3032.4024	3039.1168	3051.6694	3056.7911	3065.8749	3073.5378	3075.4394	3086.5061	3086.669	3115.5536
CC1C2C3CCCC2C13	C[C@H]1[C@H]2[C@@H]3CCC[C@H]2[C@H]13	
InChI=1S/C9H14/c1-5-8-6-3-2-4-7(8)9(5)6/h5-9H,2-4H2,1H3	InChI=1S/C9H14/c1-5-8-6-3-2-4-7(8)9(5)6/h5-9H,2-4H2,1H3/t5-,6-,7+,8-,9+
