18
gdb 10617	2.95089	1.57996	1.24447	3.3604	64.44	-0.2454	0.0565	0.3019	1011.4445	0.152419	-422.043078	-422.034108	-422.033163	-422.076302	33.113	
O	 0.3454678087	 1.2001283137	-0.4565856685	-0.430958
C	 0.1108352358	 0.0005307908	 0.2593930492	-0.126325
C	-1.3223366929	-0.4911151244	 0.1259272447	 0.306714
C	-2.3273355173	 0.284359309	 0.9414482504	-0.161133
O	-2.3141365528	 1.643774067	 0.4894723947	-0.421349
C	-1.7531980763	-1.0103121197	-1.2347000404	-0.348801
C	-1.5850913192	-1.9606555883	-0.0798114049	 0.036089
O	-0.4877031128	-2.8258716804	-0.0267810224	-0.41886
H	-0.3893903642	 1.787973232	-0.2387565506	 0.287188
H	 0.797439624	-0.7510355622	-0.1356609099	 0.114569
H	 0.3450964535	 0.1229869948	 1.3311862677	 0.074415
H	-3.3338095371	-0.1468955357	 0.8308756473	 0.087736
H	-2.0559746068	 0.2348108905	 2.0072026474	 0.09746
H	-2.7851884629	 2.1847972415	 1.1300382273	 0.293076
H	-2.7543571543	-0.7888270224	-1.5893320276	 0.111355
H	-0.9881268309	-1.0184765257	-2.0034606885	 0.126038
H	-2.4923684452	-2.3646896227	 0.3725753004	 0.082155
H	-0.5820994295	-3.4667120678	-0.7387978262	 0.29063
95.5968	116.9715	181.4751	210.7655	257.6959	272.8506	282.7097	358.8302	380.4636	422.8571	485.1633	526.9704	605.8935	734.033	844.5087	926.7999	944.8316	967.1188	976.4697	1027.8494	1046.2895	1067.1067	1076.8111	1111.1504	1177.2907	1216.2859	1238.7073	1246.5408	1289.5527	1327.4541	1355.5652	1377.952	1428.6863	1456.7237	1462.5149	1488.724	1509.3536	1523.719	2950.3885	2975.6454	3011.022	3082.2086	3106.7964	3131.1963	3220.6306	3762.7255	3812.199	3830.9649
OCC1(CO)CC1O	OCC1(CO)C[C@H]1O	
InChI=1S/C5H10O3/c6-2-5(3-7)1-4(5)8/h4,6-8H,1-3H2	InChI=1S/C5H10O3/c6-2-5(3-7)1-4(5)8/h4,6-8H,1-3H2/t4-/m1/s1
