19
gdb 100203	2.69775	1.23299	1.04219	1.7054	71.84	-0.2458	-0.0382	0.2077	1209.8813	0.157493	-460.152078	-460.142699	-460.141755	-460.18629	34.962	
O	 0.0631392657	 1.2833889189	 0.3725197705	-0.438156
C	 0.0236785437	-0.1193362939	 0.1472897889	-0.117736
C	-1.4276623114	-0.5806094546	-0.0447769711	 0.23701
O	-2.2321742375	-0.0625577652	 1.013500846	-0.466015
C	-2.027988398	 0.0411505765	-1.3128368435	 0.134014
O	-1.4742776929	 0.8657308136	-2.0025499444	-0.275162
C	-1.5541401295	-2.0886310205	-0.0869661168	-0.034144
C	-1.6434669957	-2.8808498526	 1.1937787933	-0.273157
C	-2.847156127	-2.7681527394	 0.2943014771	-0.275469
H	-0.1575291367	 1.687283383	-0.477978011	 0.300909
H	 0.6341055503	-0.4106461495	-0.7170639553	 0.105945
H	 0.4345535332	-0.5972516662	 1.0408607966	 0.121819
H	-1.830469517	 0.7947600293	 1.2251289498	 0.295701
H	-3.0679665155	-0.2847402291	-1.5239567995	 0.102556
H	-0.9903073183	-2.539876336	-0.8995264092	 0.091426
H	-1.1143339191	-3.8255843558	 1.2424825941	 0.113003
H	-1.6694155574	-2.3183132415	 2.1189951815	 0.130523
H	-3.6579116696	-2.1378341164	 0.6393320302	 0.134499
H	-3.1531508773	-3.6361127005	-0.278584617	 0.112433
84.5306	88.9815	152.5955	173.1062	224.2806	258.371	324.0529	338.8189	379.0255	435.5413	508.9506	527.7684	636.7025	661.6226	793.9527	812.1804	826.9077	867.701	920.6775	933.0388	995.4282	1039.6861	1063.1966	1068.251	1080.5062	1091.8718	1135.551	1156.4468	1202.8734	1213.8713	1229.1646	1246.8818	1344.8987	1378.8511	1402.4403	1423.5975	1446.3811	1458.115	1489.6776	1499.8234	1803.531	2921.2461	3026.5991	3100.9351	3138.922	3142.5919	3147.3828	3227.5816	3241.114	3705.6272	3759.8014
OCC(O)(C=O)C1CC1	OC[C@@](O)(C=O)C1CC1	
InChI=1S/C6H10O3/c7-3-6(9,4-8)5-1-2-5/h3,5,8-9H,1-2,4H2	InChI=1S/C6H10O3/c7-3-6(9,4-8)5-1-2-5/h3,5,8-9H,1-2,4H2/t6-/m0/s1
