18
gdb 34287	3.36119	1.44443	1.30351	4.4583	79.96	-0.2592	-0.0019	0.2573	1018.2263	0.151079	-364.8425	-364.835479	-364.834535	-364.873664	28.785	
N	 0.0140376656	-1.1306404162	 0.0186625074	-0.346486
C	 0.0071333814	 0.0253044245	 0.0018976027	 0.167513
C	-0.0056126743	 1.4767344451	-0.0091556555	 0.168994
C	-0.6840939551	 2.1342410146	 1.2544323497	-0.237093
C	-0.1689156211	 3.6022493173	 1.188534841	-0.215423
C	 0.7324537493	 3.6042758679	-0.0925851748	-0.079874
C	 1.3704239518	 2.2014085718	 0.0056315239	-0.237394
C	-0.2047771921	 3.3980344144	-1.2715440317	-0.089362
C	-0.6478204746	 2.1397725134	-1.2288633451	-0.104321
H	-1.7707283905	 2.0513623902	 1.2026800776	 0.117226
H	-0.3504683748	 1.6269359029	 2.1630819355	 0.120116
H	-0.979775281	 4.3298085219	 1.1161997591	 0.107396
H	 0.4244592211	 3.8498533002	 2.0733194073	 0.107138
H	 1.414992129	 4.4509342851	-0.1612508578	 0.071961
H	 1.9293517824	 2.0304773234	 0.9302695438	 0.107141
H	 1.9842491486	 1.9415356466	-0.8585074906	 0.117445
H	-0.5329182868	 4.1805057919	-1.9439890081	 0.106954
H	-1.4003775189	 1.6632772048	-1.8424428644	 0.11807
151.7819	159.9911	254.1291	371.8157	461.4532	467.4157	521.6601	551.7442	558.7833	675.4913	741.1685	777.6283	799.4413	823.5742	869.145	923.6209	934.0136	942.0158	956.2169	971.7784	1012.2141	1053.8064	1077.8834	1106.0876	1145.5436	1167.4484	1193.6561	1229.3075	1251.827	1265.0604	1291.3989	1303.1234	1323.8831	1362.7708	1488.6072	1489.4798	1511.4102	1645.6268	2357.3638	3059.3842	3064.2325	3075.3238	3107.0887	3119.593	3127.4472	3131.9378	3206.9573	3234.8792
N#CC12CCC(C1)C=C2	N#C[C@@]12CC[C@@H](C1)C=C2	
InChI=1S/C8H9N/c9-6-8-3-1-7(5-8)2-4-8/h1,3,7H,2,4-5H2	InChI=1S/C8H9N/c9-6-8-3-1-7(5-8)2-4-8/h1,3,7H,2,4-5H2/t7-,8-/m0/s1
