18
gdb 36695	5.13701	0.75996	0.73596	4.8945	76.3	-0.2506	0.0377	0.2883	1531.7529	0.147664	-401.920465	-401.912094	-401.91115	-401.954359	30.925	
N	-0.1464969235	-1.1206023071	-0.053981864	-0.306107
C	-0.0602358987	 0.0262756307	 0.0588647253	 0.255992
C	 0.0711434364	 1.4744715888	 0.1910204024	-0.335784
C	 1.4507604317	 1.988386074	-0.2699740882	-0.213887
C	 1.5488812664	 3.4942830279	-0.1005497791	 0.132945
O	 1.3050165753	 3.9383507917	 1.2691366988	-0.308732
C	 2.5062749479	 4.7180653222	 1.2391823884	 0.11404
C	 3.7063613113	 3.8403965493	 1.1115314705	-0.298177
C	 2.9034568787	 4.2032741913	-0.1244795209	-0.157846
H	-0.7287299564	 1.9509383152	-0.3882691831	 0.149605
H	-0.0856266023	 1.7550493864	 1.2376635962	 0.174672
H	 2.2337036444	 1.4899901488	 0.3082164665	 0.124848
H	 1.6117643768	 1.7359035332	-1.3240067558	 0.123179
H	 0.8311496515	 3.9981557297	-0.7629895312	 0.085883
H	 2.4765706301	 5.7103003264	 1.6726921112	 0.110718
H	 4.6644606769	 4.3468823553	 1.1749330481	 0.121734
H	 3.6889166336	 2.8393223994	 1.5317903784	 0.121161
H	 3.3289222499	 4.715075277	-0.9763024537	 0.105757
61.7588	93.2962	105.4489	211.1106	236.0107	364.7833	399.4905	477.9298	483.5588	581.3022	716.9665	763.1868	778.2737	815.2583	890.4487	931.0415	953.6459	972.7354	1007.2794	1013.7622	1043.3885	1044.0647	1054.0413	1083.5573	1094.5429	1119.9993	1199.7375	1207.7571	1255.644	1268.1359	1305.0863	1313.4241	1356.1177	1374.3137	1409.4808	1468.9837	1475.8812	1487.9154	2362.6435	3007.1955	3043.7965	3053.6064	3087.3711	3109.169	3122.6999	3187.9281	3207.2733	3216.1371
N#CCCC1OC2CC12	N#CCC[C@H]1O[C@H]2C[C@@H]12	
InChI=1S/C7H9NO/c8-3-1-2-6-5-4-7(5)9-6/h5-7H,1-2,4H2	InChI=1S/C7H9NO/c8-3-1-2-6-5-4-7(5)9-6/h5-7H,1-2,4H2/t5-,6+,7-/m0/s1
