18
gdb 126309	5.64858	0.8523	0.78645	1.7066	76.38	-0.2427	0.0046	0.2473	1494.2649	0.147042	-439.086021	-439.076961	-439.076017	-439.120594	32.236	
C	 0.14541305	 1.551989355	-0.1136558154	-0.375024
C	-0.0755314005	 0.0433810393	 0.0933049296	-0.293356
C	 0.5688638093	-0.4753540919	 1.3344342198	 0.475273
C	 0.0853930043	-1.0176833921	 2.4817865236	-0.482923
C	 1.2618713831	-1.2737950314	 3.2437935618	 0.501779
O	 1.2598894936	-1.8166951366	 4.4638553526	-0.262725
C	 2.5451838878	-1.9976451301	 5.0635509148	-0.241394
N	 2.3598949357	-0.917864597	 2.6166466125	-0.254882
O	 1.9139891995	-0.4056039871	 1.3902368915	-0.238124
H	 1.2121369866	 1.7827371353	-0.1699899145	 0.141834
H	-0.3280684434	 1.883117071	-1.0421734574	 0.118382
H	-0.282002434	 2.1268213878	 0.7131861161	 0.126178
H	-1.1448604754	-0.1818722136	 0.1454631727	 0.119594
H	 0.3241193643	-0.50541782	-0.7681817052	 0.129118
H	-0.9365151471	-1.2134015578	 2.7572521389	 0.121095
H	 3.058347563	-1.0377772535	 5.1770546473	 0.141691
H	 2.3576797011	-2.4464633964	 6.0393315685	 0.131648
H	 3.168038752	-2.658271811	 4.4526762729	 0.141836
46.8022	85.5874	154.187	178.9118	186.3802	237.6322	300.955	340.1891	415.8687	502.8264	622.1563	682.8376	728.6792	742.4026	785.8872	805.8481	947.284	961.6028	1009.9676	1032.0569	1061.8825	1074.7514	1091.7049	1169.4769	1180.2282	1226.1118	1258.9574	1327.917	1349.8574	1408.3689	1448.8056	1476.4402	1479.7853	1490.1786	1496.0027	1502.7427	1508.2864	1563.4313	1657.053	3037.1729	3039.1121	3046.2431	3087.6334	3109.0276	3117.8902	3129.6167	3152.0838	3285.1775
CCC1=CC(OC)=NO1	CCc1cc(OC)no1	
InChI=1S/C6H9NO2/c1-3-5-4-6(8-2)7-9-5/h4H,3H2,1-2H3	InChI=1S/C6H9NO2/c1-3-5-4-6(8-2)7-9-5/h4H,3H2,1-2H3
