21
gdb 121186	2.46519	1.08992	0.83547	1.6037	85.6	-0.2425	0.0522	0.2948	1458.9829	0.180325	-387.040485	-387.030535	-387.029591	-387.075985	36.338	
C	 0.3998577178	 1.3528500834	-0.2065296887	-0.384717
C	 0.0306862304	-0.0225501168	 0.3222547146	-0.040408
O	-1.0576051466	-0.516466633	-0.4384699635	-0.24396
C	-1.4757155757	-1.7897176103	-0.0597655792	 0.177949
C	-2.3021495142	-1.9842376214	 1.241093877	-0.25355
C	-3.1854872318	-2.9944988511	 0.463846045	-0.228908
C	-2.6667465704	-2.3782949515	-0.8837167516	-0.253427
C	-3.5602500424	-1.3875422619	-1.4527424723	 0.374421
C	-4.326780533	-0.5888840742	-1.9220728319	-0.490197
H	 1.2413004901	 1.7656493117	 0.3580062194	 0.11282
H	 0.6820788767	 1.2940856672	-1.2614347993	 0.127982
H	-0.4489275085	 2.0365065725	-0.1175906274	 0.129641
H	 0.8881198547	-0.7127565492	 0.2444466181	 0.084902
H	-0.2418232368	 0.0343032633	 1.3883244618	 0.091383
H	-0.6327508076	-2.4996566541	-0.085785512	 0.064627
H	-1.7850133226	-2.3347449907	 2.136602686	 0.096062
H	-2.8556364497	-1.0701152319	 1.4719145711	 0.120322
H	-2.844279354	-4.0258562079	 0.5812472713	 0.105607
H	-4.2621672219	-2.9521117171	 0.6269932175	 0.116741
H	-2.3754537503	-3.0986896116	-1.6536153923	 0.100186
H	-4.9898519643	 0.1259590046	-2.3418228537	 0.192524
68.8654	81.9756	91.2876	115.0431	188.8432	231.274	249.3519	349.8259	356.5678	441.8836	497.1005	597.9391	619.9017	623.5048	704.5234	763.8571	818.2937	824.4736	895.6153	912.0984	929.1969	970.9163	1026.6933	1067.8502	1087.2676	1113.8597	1152.6045	1180.6951	1188.0221	1205.6902	1238.2713	1259.8346	1260.2671	1283.5154	1296.8755	1348.8821	1374.7173	1405.7278	1441.3541	1476.9707	1483.4812	1493.8782	1500.1774	1529.2102	2234.8869	2956.2292	2966.4003	2990.1635	3045.8453	3059.1898	3065.1478	3075.5002	3119.9144	3121.0009	3124.0317	3141.2673	3505.8519
CCOC1CCC1C#C	CCO[C@H]1CC[C@H]1C#C	
InChI=1S/C8H12O/c1-3-7-5-6-8(7)9-4-2/h1,7-8H,4-6H2,2H3	InChI=1S/C8H12O/c1-3-7-5-6-8(7)9-4-2/h1,7-8H,4-6H2,2H3/t7-,8+/m1/s1
