17
gdb 123447	5.37972	0.94802	0.83427	6.568	73.23	-0.249	0.0131	0.2621	1332.8858	0.138838	-414.164733	-414.157018	-414.156074	-414.198245	28.081	
C	 0.0822546602	 1.2950717562	 0.5517017694	-0.193698
C	-0.0411261964	-0.1115155337	 0.0203093805	 0.013859
C	-1.3815437548	-0.6682065404	-0.2810202482	-0.248401
N	-0.4482996359	-0.3511428012	-1.3748414081	-0.306373
N	 1.3668238287	 1.9035950232	 0.2166856192	-0.024316
C	 2.054551347	 2.8408150249	 0.936493925	 0.022036
N	 3.1427075686	 3.2092560795	 0.3122636437	-0.223863
N	 3.1912142924	 2.4984440415	-0.8708419492	-0.226294
C	 2.1291992874	 1.7346939561	-0.9084983215	 0.016469
H	-0.7365573809	 1.9121515517	 0.1578743076	 0.123498
H	-0.0045331195	 1.2956272469	 1.6432854313	 0.138092
H	 0.7370628084	-0.7894176459	 0.3638676698	 0.117919
H	-1.5718283958	-1.7260277736	-0.1292048044	 0.134265
H	-2.2470331895	-0.0269239599	-0.1331798285	 0.120031
H	-0.7244852695	 0.52449372	-1.8147802976	 0.235895
H	 1.7182433869	 3.2059599921	 1.8950313225	 0.138918
H	 1.8731835826	 1.0416138025	-1.6941958214	 0.161965
40.1341	97.7164	124.1818	246.9063	301.6549	351.2033	455.6925	643.3261	697.4612	737.0969	801.5746	824.549	833.9843	861.0629	935.4926	946.404	960.7294	999.1434	1025.4979	1057.2449	1084.3987	1130.6319	1157.2345	1193.8987	1211.528	1236.1348	1257.0929	1267.7347	1301.453	1323.6993	1378.4474	1399.2849	1437.837	1489.5559	1500.4528	1513.7594	1553.3656	3016.0928	3075.6666	3112.7003	3140.139	3200.7521	3259.2321	3273.8575	3486.9573
C(C1CN1)N1C=NN=C1	C([C@H]1CN1)n1cnnc1	
InChI=1S/C5H8N4/c1-5(6-1)2-9-3-7-8-4-9/h3-6H,1-2H2	InChI=1S/C5H8N4/c1-5(6-1)2-9-3-7-8-4-9/h3-6H,1-2H2/t5-/m1/s1
