16
gdb 36085	3.79628	1.24252	1.13954	4.9746	72.4	-0.25	-0.0143	0.2357	1083.1196	0.124602	-400.712685	-400.705304	-400.704359	-400.744999	28.585	
N	-0.0480829243	-1.1879831626	 0.1992417149	-0.305451
C	-0.0273589681	-0.0339020273	 0.1568288836	 0.272181
C	-0.0044792332	 1.4267799156	 0.0820499839	-0.46958
C	 1.3973273913	 1.9954899951	-0.0155824555	 0.381573
C	 1.7024663539	 3.5278174251	-0.0280340749	-0.267016
C	 3.021006889	 2.9078356927	 0.5240549206	 0.011042
O	 2.189373286	 1.9141735523	 1.2140733185	-0.308016
C	 3.5199589082	 2.1043002435	-0.6932926593	-0.081533
C	 2.4053045057	 1.4767493377	-1.0675757371	-0.114377
H	-0.5839095811	 1.7419271855	-0.7935663396	 0.159849
H	-0.4999878477	 1.839076827	 0.9668372556	 0.165646
H	 1.7248563569	 4.0517858855	-0.9852946704	 0.104932
H	 1.141000511	 4.0745143388	 0.7340829587	 0.11016
H	 3.7216938855	 3.4370230688	 1.1664416901	 0.091662
H	 4.5177405376	 2.0874681056	-1.1051719567	 0.119948
H	 2.2067144595	 0.7792028268	-1.8675051223	 0.128981
59.034	110.463	284.2236	294.013	385.1705	451.7625	481.6181	533.0934	610.515	687.3643	708.469	760.003	808.8038	836.4892	886.754	897.8394	907.6647	935.8207	967.0593	1009.4002	1012.6527	1054.3032	1067.4266	1121.9692	1202.0903	1235.6842	1243.9306	1259.4594	1285.9353	1324.1737	1355.8219	1449.3529	1484.7932	1620.7638	2367.4174	3048.8531	3062.3897	3093.8074	3137.2935	3150.3058	3236.5367	3263.3941
N#CCC12CC(O1)C=C2	N#CC[C@@]12C[C@@H](O1)C=C2	
InChI=1S/C7H7NO/c8-4-3-7-2-1-6(5-7)9-7/h1-2,6H,3,5H2	InChI=1S/C7H7NO/c8-4-3-7-2-1-6(5-7)9-7/h1-2,6H,3,5H2/t6-,7-/m0/s1
