17
gdb 64053	2.33107	1.84174	1.32798	2.6595	68.51	-0.2576	-0.0253	0.2324	994.9538	0.136333	-455.182436	-455.174016	-455.173072	-455.215132	31.823	
C	 0.0243905032	 1.5622811028	-0.0590542939	-0.423262
C	 0.0381764244	 0.0310115675	-0.0060158344	 0.053296
N	-1.2975599641	-0.5841693246	 0.076151179	-0.530171
C	 0.7652237652	-0.5616605186	-1.2282963516	-0.177809
N	 1.0456822863	-1.9838049676	-1.1251880865	-0.237733
C	 1.2027335599	-2.4445891728	 0.0324495998	 0.148232
O	 1.1896251959	-1.7561469661	 1.2272935291	-0.216733
C	 0.7517696273	-0.4519860546	 1.2615404397	 0.469973
O	 0.9023854829	 0.1836344982	 2.2623045647	-0.315628
H	 1.0367340006	 1.9778880027	-0.0815588754	 0.126406
H	-0.5059406353	 1.8951459025	-0.957472915	 0.110844
H	-0.4812526242	 1.9705213877	 0.8189923874	 0.135494
H	-1.8411210407	-0.1309321141	 0.8050955857	 0.23956
H	-1.7937689465	-0.4403058871	-0.798985836	 0.233243
H	 0.1544321774	-0.3886174112	-2.122656869	 0.115573
H	 1.7107894821	-0.0283150136	-1.3951705545	 0.126682
H	 1.4162598257	-3.4926986911	 0.2196891807	 0.142032
91.3012	160.1606	221.1074	243.8554	261.5433	300.969	354.3383	360.38	474.551	477.3658	526.051	583.1373	682.7664	762.1118	824.8832	872.5431	911.8247	948.6103	950.7776	993.3131	1010.9407	1079.2222	1100.942	1120.6577	1168.3091	1217.6968	1268.9823	1352.1832	1378.237	1407.1744	1410.4664	1474.7501	1484.2142	1495.952	1652.3595	1755.0992	1871.5821	3019.3366	3038.2915	3054.1966	3107.4617	3127.6932	3191.958	3485.1904	3568.9897
CC1(N)CN=COC1=O	C[C@@]1(N)CN=COC1=O	
InChI=1S/C5H8N2O2/c1-5(6)2-7-3-9-4(5)8/h3H,2,6H2,1H3	InChI=1S/C5H8N2O2/c1-5(6)2-7-3-9-4(5)8/h3H,2,6H2,1H3/t5-/m1/s1
