16
gdb 28486	3.12158	1.41689	0.98164	3.6105	76.11	-0.2085	-0.0295	0.1789	1150.2116	0.12598	-434.140242	-434.132139	-434.131195	-434.172611	30.996	
C	-0.0404538612	 1.5163477674	-0.0110099408	-0.500289
C	 0.0101870348	 0.0148525611	-0.0049393225	 0.291129
N	-0.0073200562	-0.6097197387	-1.1829141749	-0.337471
C	 0.0517627862	-1.9369505864	-1.1625011213	 0.42646
O	 0.0372643421	-2.5411204521	-2.3667469552	-0.401484
N	 0.1219249925	-2.7189801775	-0.0878826298	-0.351145
C	 0.1285668656	-2.0873803183	 1.0866233653	-0.046871
C	 0.0770201225	-0.7013710247	 1.2063419055	 0.199171
N	 0.1624430127	-0.0500020214	 2.445883763	-0.597833
H	 0.7919678072	 1.9374905304	 0.5645592703	 0.142136
H	 0.0039827594	 1.8807738914	-1.037372085	 0.15114
H	-0.9676879889	 1.8870000945	 0.4469318064	 0.126962
H	 0.087421896	-3.4891482276	-2.1874906055	 0.300773
H	 0.1820824661	-2.7145815573	 1.9758854937	 0.102112
H	-0.0335319913	-0.6561836736	 3.2316356774	 0.246287
H	-0.3956458372	 0.790617873	 2.5108576534	 0.248924
121.0989	155.8255	211.7689	261.7127	290.3628	343.5682	387.5021	457.4522	501.2989	534.8105	537.3899	582.0952	645.1953	697.8674	763.5238	804.524	819.703	951.7579	969.2842	1033.0768	1054.9458	1103.4436	1214.3588	1232.1168	1294.9012	1336.9363	1387.9953	1398.0992	1467.2018	1482.4626	1493.0011	1506.3165	1609.2776	1642.7201	1662.2008	3017.2384	3072.6037	3132.8455	3152.5061	3542.2276	3634.4762	3791.2311
CC1=NC(O)=NC=C1N	Cc1nc(O)ncc1N	
InChI=1S/C5H7N3O/c1-3-4(6)2-7-5(9)8-3/h2H,6H2,1H3,(H,7,8,9)	InChI=1S/C5H7N3O/c1-3-4(6)2-7-5(9)8-3/h2H,6H2,1H3,(H,7,8,9)
