15
gdb 131306	5.89286	1.01522	0.93016	1.7941	68.65	-0.2493	-0.0238	0.2255	1225.2913	0.114145	-450.096028	-450.088558	-450.087613	-450.129754	27.543	
O	 0.3114453307	 1.2321772875	-0.1379902372	-0.398379
C	 0.1229511756	-0.0872296249	-0.0764542902	 0.480669
N	 0.1855693358	-0.864631977	-1.1511409655	-0.324261
N	-0.0623369646	-2.0563752406	-0.5987064288	 0.132358
N	-0.2612614662	-2.0235520257	 0.7020468349	-0.142279
N	-0.1459390305	-0.7587894625	 1.0608176708	-0.30373
C	-0.1027104268	-3.260820392	-1.3836316945	 0.090012
C	 0.4015125757	-4.5484753339	-0.791958608	-0.275514
C	-1.0762216161	-4.3489025474	-1.0221505526	-0.275535
H	 0.2170720352	 1.5728453232	 0.7606583051	 0.319237
H	 0.0906390685	-3.0251679054	-2.4204109739	 0.135802
H	 0.9541719242	-5.2137619724	-1.4451605429	 0.129652
H	 0.7517112711	-4.5031802804	 0.2322469617	 0.151143
H	-1.6922108302	-4.1731297915	-0.1484531915	 0.151178
H	-1.5609723024	-4.874080587	-1.8369599474	 0.129648
12.9521	144.6177	184.5277	330.5738	345.5077	406.7696	443.3058	505.0341	634.497	703.4897	771.3828	772.6576	789.0019	820.5062	918.1024	952.1316	1035.9695	1069.8184	1088.8127	1090.8837	1109.0274	1122.1086	1199.4013	1201.0768	1219.6209	1261.7563	1266.2315	1392.4881	1440.0572	1455.4349	1481.5578	1502.8279	1627.08	3146.4016	3147.7912	3224.8017	3235.2284	3248.7853	3801.8447
OC1=NN(N=N1)C1CC1	Oc1nn(nn1)C1CC1	
InChI=1S/C4H6N4O/c9-4-5-7-8(6-4)3-1-2-3/h3H,1-2H2,(H,6,9)	InChI=1S/C4H6N4O/c9-4-5-7-8(6-4)3-1-2-3/h3H,1-2H2,(H,6,9)
