15
gdb 66707	2.80721	1.73479	1.30424	5.1569	74.26	-0.2419	-0.0096	0.2323	967.9947	0.112201	-379.564635	-379.557339	-379.556395	-379.596328	27.969	
C	-0.0099017409	 1.5113064123	 0.0554677136	-0.526393
C	 0.0316842822	 0.0230564587	-0.0064326755	 0.271933
C	 0.2464854434	-1.0020324755	-1.1580191916	-0.114369
C	 0.8009340698	-1.9923731675	-0.2008880782	-0.047864
C	 0.6018689902	-1.001117468	 0.9702139546	-0.219135
C	-0.8830337137	-1.0198053433	 0.6296346436	 0.277527
C	-2.037323088	-0.8889275802	 1.4384754961	 0.143466
N	-2.9741789953	-0.7561497507	 2.1069871463	-0.351548
N	-0.6721680748	-2.0107761547	-0.5169282355	-0.202977
H	 0.9579711561	 1.9443689798	-0.2196706491	 0.135224
H	-0.7695997828	 1.9158700264	-0.6216420894	 0.14177
H	-0.2525372056	 1.8455906321	 1.069281536	 0.143789
H	 0.3274420437	-0.901618995	-2.2332852482	 0.112706
H	 1.4302995916	-2.8623355275	-0.3372656229	 0.114802
H	 1.0798602439	-0.8541657768	 1.92808696	 0.12107
115.6358	159.1347	211.0508	259.9434	284.5024	493.4745	511.951	543.7948	620.1867	695.5619	769.4454	774.23	805.8156	845.9565	871.4637	901.0457	918.149	953.8887	995.4553	1013.9284	1037.668	1093.3616	1131.7522	1157.0124	1206.6724	1236.4765	1295.9167	1325.7253	1410.6455	1450.1678	1478.5764	1495.9795	2334.8485	3030.8162	3095.5907	3106.1512	3188.5879	3202.6713	3227.1517
CC12C3C4C1C2(C#N)N34	C[C@@]12[C@H]3[C@H]4[C@@H]1[C@]2(C#N)N34	
InChI=1S/C7H6N2/c1-6-4-3-5(6)9(3)7(4,6)2-8/h3-5H,1H3	InChI=1S/C7H6N2/c1-6-4-3-5(6)9(3)7(4,6)2-8/h3-5H,1H3/t3-,4+,5-,6+,7+,9?/m1/s1
