18
gdb 78995	3.92259	1.70123	1.51401	0.9047	81.12	-0.2091	-0.0323	0.1768	917.6356	0.148899	-364.695296	-364.688707	-364.687763	-364.725739	27.976	
C	-0.3633343552	 1.4643382309	 0.0621857811	-0.408793
C	 0.1894583977	 0.0621312045	 0.2870731094	-0.025494
C	 0.886791504	-0.5121698563	-1.0212028097	 0.039505
C	 2.2702202342	 0.0272508425	-0.5993123801	-0.096745
C	 2.8481670322	-1.3368192746	-0.9448759106	-0.048833
C	 2.3674459126	-2.1876085731	 0.162626797	-0.052304
C	 1.8523408494	-1.3873442218	 1.2665559152	-0.118763
C	 1.6352301297	-0.1252280256	 0.8007890272	-0.014206
N	 1.4762034922	-1.9252763694	-1.1245942531	-0.202995
H	 0.3554969032	 2.1046699601	-0.4590894337	 0.119595
H	-1.2835094098	 1.4316133921	-0.5314614874	 0.116893
H	-0.5971280519	 1.9391499849	 1.0199140378	 0.125656
H	-0.5491560666	-0.5773304537	 0.7765282868	 0.086182
H	 0.4327346948	-0.2637212067	-1.9831671786	 0.100427
H	 2.6864901728	 0.9757471846	-0.9253550468	 0.079559
H	 3.6755799073	-1.5776910246	-1.601245305	 0.097144
H	 2.6391268077	-3.2342413184	 0.2241519118	 0.104811
H	 1.2256262759	-1.8408581452	 2.0287018387	 0.098363
194.4393	224.3489	260.7839	412.042	452.8293	520.8506	568.221	665.9679	697.4157	747.7491	772.1865	811.8817	826.2696	846.1336	864.9944	882.9852	909.407	935.3305	964.2975	1007.5419	1024.4981	1039.2283	1073.8598	1082.2259	1110.1973	1114.9333	1155.7849	1177.5107	1201.8626	1212.2145	1250.5415	1262.4349	1319.205	1351.1075	1367.1111	1408.8292	1491.5448	1495.776	1533.128	3032.7968	3078.133	3092.3174	3101.749	3110.0853	3153.0543	3167.6384	3185.0091	3200.7287
CC1C2C3C4C(C=C13)N24	C[C@H]1[C@H]2[C@@H]3[C@H]4[C@@H]([CH][C]13)N24	
InChI=1S/C8H9N/c1-3-4-2-5-8-6(4)7(3)9(5)8/h2-3,5-8H,1H3	InChI=1S/C8H9N/c1-3-4-2-5-8-6(4)7(3)9(5)8/h2-3,5-8H,1H3/t3-,5-,6-,7+,8-,9?/m1/s1
