14
gdb 133495	3.35595	0.95842	0.90133	2.2161	51.92	-0.2881	0.0005	0.2886	1270.5954	0.09517	-605.368971	-605.359834	-605.358889	-605.404901	30.806	
C	-0.0815323672	 1.3261553973	-0.1981203194	-0.480743
C	 0.1485452076	-0.1598343849	-0.1241867445	 0.438711
O	 0.9897209309	-0.7189315137	 0.5243308393	-0.335213
O	-0.7607052137	-0.810538095	-0.9113554847	-0.240407
C	-0.6265667776	-2.2221068674	-1.0033888176	-0.210604
C	 0.0166865957	-2.5832334771	-2.3345921644	 0.268385
F	 1.2217716424	-2.0179251744	-2.4633276437	-0.070856
F	 0.1646254305	-3.9129970934	-2.4157318445	-0.073566
F	-0.7309126812	-2.187000379	-3.3709184652	-0.073206
H	 0.5906689289	 1.8320180409	 0.493348799	 0.154045
H	 0.1029893011	 1.6752321005	-1.2183736313	 0.160752
H	-1.1218273969	 1.5600789874	 0.0425694102	 0.154909
H	-0.0048995447	-2.6062008125	-0.1932099197	 0.165258
H	-1.6261833257	-2.6594584587	-0.9670954534	 0.142535
44.6467	57.445	71.5287	92.6989	243.4971	261.4976	328.4061	376.3586	473.8574	530.7503	551.5839	595.4827	648.6936	672.601	844.8234	855.5758	986.2362	1013.4043	1064.8628	1099.3289	1200.594	1211.8445	1233.7079	1301.5397	1331.9398	1394.8351	1422.4482	1468.0592	1474.487	1475.5441	1846.3814	3059.7609	3087.9853	3125.4888	3153.111	3173.5937
CC(=O)OCC(F)(F)F	CC(=O)OCC(F)(F)F	
InChI=1S/C4H5F3O2/c1-3(8)9-2-4(5,6)7/h2H2,1H3	InChI=1S/C4H5F3O2/c1-3(8)9-2-4(5,6)7/h2H2,1H3
