20
gdb 120714	2.17577	1.16602	0.92137	2.9563	77.21	-0.2369	-0.0148	0.2221	1378.4849	0.168345	-440.262158	-440.251864	-440.25092	-440.298934	35.7	
C	 0.2944986326	 1.4058717652	-0.1860035446	-0.224914
O	 0.6025236827	 0.0339127938	-0.2613175542	-0.246712
C	-0.2234714781	-0.658803948	-1.1766313571	-0.061652
C	 0.1970017529	-2.1049658447	-1.1685506211	-0.044746
N	-0.0324380187	-2.8558349911	-2.3947864823	-0.321306
C	 1.3595143447	-2.5989176973	-1.987601659	-0.128054
C	 2.1809936457	-1.6547664996	-2.8225962968	 0.415799
C	 3.6772843347	-1.7233990781	-2.5785006381	-0.488544
O	 1.687241802	-0.8763020895	-3.6059365372	-0.307808
H	 0.4147120065	 1.9043974128	-1.160074673	 0.113647
H	-0.7378285139	 1.5748277048	 0.160367126	 0.101888
H	 0.9843387758	 1.8575787994	 0.5312639737	 0.123624
H	-1.2831727468	-0.5837762493	-0.876606494	 0.085399
H	-0.1278711434	-0.2535734669	-2.1914836092	 0.136648
H	 0.0624924446	-2.6106690467	-0.2134215898	 0.095805
H	-0.2758635512	-3.8209926497	-2.1894568311	 0.239255
H	 1.9200184057	-3.4188891429	-1.5432205196	 0.085875
H	 3.8928813968	-1.5468146283	-1.5183756843	 0.147356
H	 4.05953044	-2.7218460608	-2.8213595186	 0.136133
H	 4.1863435274	-0.9766851731	-3.1883199496	 0.142307
33.2563	55.7773	94.8745	132.2849	157.225	191.6668	238.4992	257.021	346.7277	370.5974	447.0996	480.504	602.2161	625.664	776.7005	811.7873	916.0596	933.2245	959.1262	987.3903	1021.4443	1029.7923	1052.6438	1120.934	1162.0688	1178.4123	1184.5605	1188.7274	1213.9306	1227.8358	1249.7777	1284.1338	1375.1376	1379.4916	1431.0185	1463.3816	1472.442	1476.483	1484.7758	1486.9395	1503.8316	1526.665	1809.6417	2955.8101	2972.6431	3018.2025	3032.9185	3054.8138	3093.1434	3111.9499	3118.113	3130.4516	3155.1053	3509.8565
COCC1NC1C(C)=O	COC[C@H]1N[C@H]1C(=O)C	
InChI=1S/C6H11NO2/c1-4(8)6-5(7-6)3-9-2/h5-7H,3H2,1-2H3	InChI=1S/C6H11NO2/c1-4(8)6-5(7-6)3-9-2/h5-7H,3H2,1-2H3/t5-,6+/m1/s1
