17
gdb 17774	5.8888	1.15413	1.13598	3.5207	69.7	-0.2353	-0.0223	0.213	1075.2819	0.142529	-363.782547	-363.775306	-363.774362	-363.815235	26.634	
O	-0.4356054716	 0.2238390258	 0.3158643936	-0.239677
C	 0.4504667125	 0.6174087713	-0.3984021583	 0.159836
C	 1.4060923558	 1.740640819	-0.0387087083	-0.340933
C	 1.4205513877	 2.8169501922	-1.1193095694	 0.078042
C	 2.5701935699	 3.839463812	-1.3150497311	-0.080809
C	 3.3649567331	 2.6631726992	-1.9169236484	-0.176097
N	 1.964280446	 2.4427316491	-2.5253261457	-0.155772
C	 1.9939490978	 3.9682262321	-2.7423088908	-0.165608
H	 0.6290594463	 0.1698194554	-1.400103365	 0.100778
H	 1.0884944271	 2.1707586981	 0.9162452081	 0.125326
H	 2.3968482077	 1.2943809835	 0.107488767	 0.12136
H	 0.4148017951	 3.2454415071	-1.2013059698	 0.08499
H	 2.9095190047	 4.6277300334	-0.6338775459	 0.069507
H	 4.1238091639	 2.8954960063	-2.6683103047	 0.106291
H	 3.7097934286	 1.8582776323	-1.2672580407	 0.102378
H	 1.001931345	 4.4116559029	-2.8640506832	 0.105344
H	 2.6713245704	 4.2758145702	-3.5426062473	 0.105044
50.5286	62.8724	162.6692	320.0346	374.8482	464.5569	586.0201	606.5513	742.6146	783.8569	790.5732	836.5438	868.6844	903.595	921.9046	1010.2014	1037.7048	1050.1208	1064.3236	1092.3559	1124.1148	1146.4502	1170.2149	1175.6359	1199.9862	1222.026	1228.8683	1251.3318	1274.728	1309.4813	1423.0908	1436.3612	1456.3916	1520.4323	1556.6647	1831.4947	2904.3746	3033.1789	3038.801	3043.5205	3057.0682	3073.4398	3098.1529	3122.8207	3133.8863
O=CCC1C2CN1C2	O=CC[C@H]1[C@H]2CN1C2	
InChI=1S/C6H9NO/c8-2-1-6-5-3-7(6)4-5/h2,5-6H,1,3-4H2	InChI=1S/C6H9NO/c8-2-1-6-5-3-7(6)4-5/h2,5-6H,1,3-4H2/t6-/m0/s1
