20
gdb 117227	3.54319	0.826	0.79044	4.2765	78.62	-0.2488	0.0121	0.2609	1568.5986	0.169055	-440.302238	-440.292034	-440.29109	-440.339155	36.007	
C	-0.0049691428	 1.4721830916	 0.2607253266	-0.372899
C	 0.3768810794	-0.001691553	 0.4125085484	-0.144989
N	 1.0731211801	-0.5286850433	-0.7509438327	-0.326833
C	 0.5207136194	-1.4527285829	-1.5906146194	 0.413655
O	-0.5784554553	-1.9477431411	-1.4159083466	-0.376427
C	 1.407827754	-1.7902448787	-2.7685908108	-0.065775
O	 1.2507248036	-3.0815887156	-3.3413306508	-0.23391
C	 0.8708390633	-1.9648749388	-4.1404085685	 0.082729
C	-0.581433229	-1.8267002297	-4.5117142816	-0.433565
H	 0.878990562	 2.1009533605	 0.1062381857	 0.110959
H	-0.6761552234	 1.6131085158	-0.5912978128	 0.132379
H	-0.5133501245	 1.8278719929	 1.1623626093	 0.122893
H	 1.0045866478	-0.141151004	 1.301185357	 0.108554
H	-0.5135035705	-0.6219329897	 0.5332718695	 0.154484
H	 1.9882585699	-0.1661432584	-0.9648247006	 0.243998
H	 2.447274568	-1.4661216424	-2.6750979126	 0.081493
H	 1.5797452847	-1.7496512256	-4.9441043238	 0.090814
H	-1.2173318391	-2.0153797195	-3.6471749097	 0.172328
H	-0.7765739964	-0.8198117254	-4.896937957	 0.114325
H	-0.827923411	-2.5402728928	-5.3050238597	 0.125788
19.9048	50.3291	94.2519	166.7514	187.9438	225.9356	259.3601	303.2817	346.3057	387.6525	429.8577	462.7368	485.7607	706.1879	758.8279	787.3059	811.902	847.8746	905.0697	932.3422	999.7021	1038.829	1070.061	1085.193	1117.2809	1167.1519	1170.2338	1176.7151	1223.8843	1300.416	1318.8385	1386.0517	1395.473	1410.3131	1420.8841	1455.4848	1486.1289	1492.7521	1496.7324	1502.1735	1503.6661	1547.0262	1778.2703	3031.4199	3034.3885	3038.7748	3067.4512	3081.0004	3097.2258	3097.8803	3117.5535	3128.868	3163.4949	3635.6653
CCNC(=O)C1OC1C	CCNC(=O)[C@H]1O[C@H]1C	
InChI=1S/C6H11NO2/c1-3-7-6(8)5-4(2)9-5/h4-5H,3H2,1-2H3,(H,7,8)	InChI=1S/C6H11NO2/c1-3-7-6(8)5-4(2)9-5/h4-5H,3H2,1-2H3,(H,7,8)/t4-,5-/m0/s1
