14
gdb 43520	2.88108	1.31735	0.90512	11.8653	80.5	-0.16	-0.0103	0.1497	1191.8953	0.102266	-429.057315	-429.048798	-429.047854	-429.090348	31.55	
N	 0.0544092083	 1.4074859426	 0.0012029903	-0.591813
C	 0.0035264819	 0.1274627748	-0.0009966989	 0.259542
N	 1.1352980163	-0.7897021128	-0.0257177509	-0.368761
C	 0.737781295	-2.0758248608	-0.0386686993	 0.466112
N	 1.5782620997	-3.1567191752	-0.1578632654	-0.600249
H	 2.4324048676	-3.0890011748	 0.3805289962	 0.276342
H	 1.1334168139	-4.0551638454	-0.031884401	 0.272789
N	-0.5805423534	-2.0942661356	 0.0008550798	-0.347157
C	-1.1067827837	-0.7710748485	 0.0190677412	 0.083257
C	-2.4773576345	-0.5531796268	 0.0405250326	 0.190099
N	-3.6367807683	-0.4319046688	 0.0630269528	-0.386371
H	 1.0083960936	 1.7588711902	-0.0227150603	 0.191058
H	 2.0854327095	-0.49111453	-0.1688281686	 0.26801
H	-1.1520471058	-2.9213022288	 0.0389424015	 0.287143
108.3904	140.8704	173.7985	175.3855	287.5136	314.2272	385.4609	434.9747	517.7047	534.2219	551.1365	599.832	626.3739	628.1848	659.6397	665.516	701.0679	814.0357	966.3766	1064.1462	1116.94	1171.5337	1199.9367	1263.856	1328.1711	1466.8812	1575.8006	1641.2962	1694.9885	1742.3863	2285.4471	3509.813	3547.5697	3649.496	3669.3578	3677.3242
N=C1NC(=[NH2+])N[C-]1C#N	[NH]C1=C(N[C@H](N1)N)C#N	
InChI=1S/C4H4N5/c5-1-2-3(6)9-4(7)8-2/h(H4,6,7,8,9)/q-1/p+1	InChI=1S/C4H6N5/c5-1-2-3(6)9-4(7)8-2/h4,6,8-9H,7H2/t4-/m1/s1
