23
gdb 115331	3.18984	1.03732	0.88544	1.5231	81.43	-0.2559	0.0635	0.3195	1400.4793	0.205789	-425.437759	-425.427628	-425.426684	-425.472949	37.752	
C	-0.7989313696	 1.2278583836	-0.011371163	-0.436974
C	 0.1235262829	 0.0102233765	-0.0171532388	 0.035017
C	 1.1551115748	-0.0140718713	-1.1666712652	-0.212604
C	 2.3036149742	-0.9385427494	-0.6810299381	-0.211557
C	 2.0106745408	-1.2305107932	 0.8171850449	 0.042653
C	 3.2485822617	-1.3133858984	 1.6969832699	-0.104484
O	 4.0187169043	-2.4227640192	 1.2445627632	-0.429055
C	 1.0037465673	-0.1514126989	 1.2391891074	 0.076398
O	 1.7375440727	 1.0371886952	 1.536607225	-0.442402
H	-0.223661909	 2.1584709064	 0.0572030017	 0.111666
H	-1.3845015901	 1.2811095977	-0.9346916728	 0.1199
H	-1.5072476694	 1.1984281611	 0.8250563957	 0.107875
H	-0.4964553381	-0.8953758035	-0.0782819	 0.069874
H	 0.7087199915	-0.347499498	-2.1080134662	 0.089516
H	 1.530936354	 1.0006287233	-1.3331321531	 0.100897
H	 2.3571309619	-1.8671603849	-1.25348331	 0.102929
H	 3.2751650675	-0.4488408643	-0.7923325468	 0.102671
H	 1.4942571617	-2.1952545643	 0.8946983203	 0.077291
H	 3.8142734789	-0.3751152391	 1.6249938414	 0.102615
H	 2.9530707381	-1.4412667683	 2.7512959253	 0.077521
H	 4.8557745511	-2.4158872562	 1.7172142461	 0.283997
H	 0.4165722611	-0.4592618732	 2.1179458942	 0.051851
H	 1.1097341017	 1.7172653186	 1.7976607388	 0.284405
54.1162	92.5122	124.9463	170.0287	232.3155	264.0195	267.4856	299.389	309.4408	328.7793	398.3071	473.9449	543.6635	611.7441	714.9431	804.4325	832.5889	865.27	901.9193	924.1272	969.1213	997.5256	1022.2424	1039.8056	1062.2396	1070.0535	1120.9585	1141.818	1155.8849	1201.1669	1210.7517	1234.5469	1252.1456	1279.9841	1300.9862	1302.1078	1315.6983	1331.8465	1357.0201	1373.587	1385.3241	1404.3405	1425.6591	1455.6223	1484.2007	1498.5727	1504.3012	1508.9773	1523.0458	2965.8559	2980.9062	3006.2287	3022.4431	3023.6351	3041.4456	3046.0525	3064.7591	3081.7134	3087.244	3096.7081	3109.3185	3828.8207	3832.3309
CC1CCC(CO)C1O	C[C@H]1CC[C@@H](CO)[C@H]1O	
InChI=1S/C7H14O2/c1-5-2-3-6(4-8)7(5)9/h5-9H,2-4H2,1H3	InChI=1S/C7H14O2/c1-5-2-3-6(4-8)7(5)9/h5-9H,2-4H2,1H3/t5-,6-,7-/m0/s1
