15
gdb 9243	5.81473	0.81754	0.73774	5.7195	76.51	-0.2759	-0.0466	0.2293	1472.6448	0.116662	-362.636707	-362.627649	-362.626705	-362.671203	30.622	
C	 0.0009170393	 1.3943675634	-0.0196765323	-0.236515
O	 0.0088762348	-0.0149716102	 0.0921741578	-0.240232
C	-1.2787139203	-0.6067608025	 0.026141924	-0.062005
C	-1.7782295486	-0.7710955259	-1.4195285141	-0.396712
C	-1.2018329891	-1.9026823712	 0.7027612504	 0.098753
C	-1.1686625026	-2.9797052099	 1.2473709313	 0.074011
C	-1.1264421113	-4.1970062062	 1.8647023007	 0.205209
N	-1.094244635	-5.2329626765	 2.3891682582	-0.333935
H	 1.0334189511	 1.7233177895	 0.1135757683	 0.141508
H	-0.3522412369	 1.7380455173	-1.0019656597	 0.113959
H	-0.6239742258	 1.85739086	 0.7588821982	 0.114148
H	-2.0001335151	 0.0147059358	 0.5844959877	 0.110188
H	-1.8717281312	 0.2067382558	-1.8986087691	 0.129107
H	-1.072967771	-1.3802288486	-1.9893236436	 0.145617
H	-2.7584102483	-1.2550833107	-1.4331360278	 0.136899
55.0552	82.0891	108.8446	191.8506	227.2403	235.8337	251.9647	365.9601	375.0932	493.5736	521.2617	578.7921	593.7516	738.1505	855.3285	997.3717	1057.6695	1097.3919	1135.35	1179.2822	1185.1522	1216.415	1336.1002	1368.5318	1400.1647	1475.8566	1482.618	1490.0277	1498.3124	1509.4381	2267.9754	2405.374	2956.2983	2985.929	3038.6588	3053.2302	3127.1376	3128.9661	3140.8612
COC(C)C#CC#N	CO[C@@H](C)C#CC#N	
InChI=1S/C6H7NO/c1-6(8-2)4-3-5-7/h6H,1-2H3	InChI=1S/C6H7NO/c1-6(8-2)4-3-5-7/h6H,1-2H3/t6-/m0/s1
