18
gdb 15387	2.86856	1.52635	1.10729	1.1091	75.13	-0.23	0.049	0.279	1114.3009	0.151312	-347.749454	-347.740572	-347.739628	-347.783177	32.408	
C	 0.1017965255	 1.4767407313	-0.2649500649	-0.386438
C	 0.5060877801	 0.0163908681	-0.1758678725	-0.041464
O	 0.1194223308	-0.6250405281	-1.3883781899	-0.241327
C	 0.4421404728	-1.9666337886	-1.4278501755	 0.139699
C	 0.607282343	-2.5752993105	-2.7739831704	-0.325756
C	 1.8402625282	-2.4010925807	-1.8836200744	-0.240052
C	 2.831257517	-1.4243721805	-2.2180550241	 0.341911
C	 3.6800691412	-0.6142263918	-2.4857513946	-0.467731
H	 0.6092257075	 1.9616337983	-1.1034585954	 0.131623
H	-0.9775865298	 1.5700702823	-0.4151598376	 0.125532
H	 0.3715946518	 2.0019939386	 0.6560745266	 0.114681
H	 1.5904614296	-0.0837181196	-0.0332784552	 0.108823
H	 0.0088673538	-0.4749222849	 0.6764443786	 0.085547
H	-0.0034529205	-2.5703966785	-0.6347091655	 0.088116
H	 0.2454664599	-3.5819085623	-2.9482816582	 0.120149
H	 0.5295339167	-1.8979655356	-3.6158435954	 0.140773
H	 2.2244020005	-3.3061170818	-1.4211604665	 0.112415
H	 4.4247996319	 0.1017026145	-2.729918575	 0.193498
58.0318	108.7404	148.0125	168.3307	226.6965	252.0198	338.0321	420.8417	432.9694	531.5185	573.1983	645.6899	667.0191	772.0455	774.9124	822.26	837.4622	911.6294	992.4703	1034.4743	1063.9277	1080.4269	1120.6134	1128.8512	1145.9507	1185.6909	1190.9253	1251.6504	1298.865	1367.4073	1382.479	1405.5517	1441.868	1482.2438	1483.5826	1500.4593	1524.6751	2233.664	2972.912	3033.4643	3045.6694	3080.9088	3119.7576	3123.8653	3142.2933	3146.9066	3242.2666	3505.2601
CCOC1CC1C#C	CCO[C@H]1C[C@H]1C#C	
InChI=1S/C7H10O/c1-3-6-5-7(6)8-4-2/h1,6-7H,4-5H2,2H3	InChI=1S/C7H10O/c1-3-6-5-7(6)8-4-2/h1,6-7H,4-5H2,2H3/t6-,7+/m1/s1
