23
gdb 64213	2.65176	1.15591	1.01464	1.7734	85.37	-0.2379	0.0829	0.3209	1324.1016	0.204421	-388.269985	-388.260256	-388.259312	-388.304724	36.915	
C	-0.258443088	 1.516334914	 0.0429345948	-0.428453
C	-0.0154592591	 0.010815664	 0.0413040931	 0.420392
C	-1.2745623972	-0.7639881866	-0.3195213377	-0.430725
O	 1.0732315355	-0.3226407084	-0.8725497456	-0.326117
C	 1.9461140709	-0.6871477057	 0.211395975	-0.096216
C	 0.8072572543	-0.5622441946	 1.2447751818	-0.091889
C	 1.036381863	 0.2559145984	 2.4842668738	 0.017194
C	 0.094706588	 0.1439065588	 3.6603427657	-0.271654
C	 1.4901664121	-0.4171041153	 3.7588193764	-0.278513
H	 0.6638524599	 2.0687390841	 0.2408794712	 0.115818
H	-0.6314895674	 1.8299541759	-0.9372364555	 0.119024
H	-0.9989989336	 1.7969884708	 0.7991290935	 0.116068
H	-1.6505524152	-0.4511355941	-1.2993469608	 0.120797
H	-1.0681590638	-1.8371771358	-0.3613107022	 0.115187
H	-2.0630265056	-0.5882976992	 0.4208349708	 0.113159
H	 2.3856592757	-1.6817731551	 0.0728144778	 0.097921
H	 2.7599147629	 0.0397240905	 0.348107611	 0.090682
H	 0.418309537	-1.5450294312	 1.5312432357	 0.066175
H	 1.4527805935	 1.2439737487	 2.3091801453	 0.082733
H	-0.1405751147	 1.0425484577	 4.21961876	 0.112696
H	-0.7288238845	-0.5587031687	 3.5844586009	 0.111499
H	 1.604886686	-1.4961402131	 3.7489828386	 0.11187
H	 2.2101229104	 0.0990105651	 4.3840075666	 0.112353
60.8619	72.8389	156.364	192.0274	222.8002	244.2185	303.1959	330.7925	343.8361	392.5449	447.7213	504.2395	650.2426	738.2299	799.64	828.2089	858.447	895.011	918.7183	924.1885	948.6459	977.3513	1000.7053	1011.8577	1025.0267	1057.2499	1076.3992	1086.2674	1136.5867	1150.2331	1168.6417	1176.6296	1198.4519	1226.8486	1244.5792	1264.5442	1281.8795	1319.0535	1354.8656	1397.8661	1410.5823	1440.631	1470.5609	1472.4169	1483.4296	1491.8888	1505.5149	1506.1993	1529.2377	2995.4673	3029.2385	3037.0727	3039.9759	3056.4628	3099.1003	3108.5304	3111.636	3115.6121	3129.6225	3134.1064	3144.8241	3207.7469	3222.8879
CC1(C)OCC1C1CC1	CC1(C)OC[C@H]1C1CC1	
InChI=1S/C8H14O/c1-8(2)7(5-9-8)6-3-4-6/h6-7H,3-5H2,1-2H3	InChI=1S/C8H14O/c1-8(2)7(5-9-8)6-3-4-6/h6-7H,3-5H2,1-2H3/t7-/m0/s1
