20
gdb 111363	2.01343	1.66854	1.09472	2.0368	84.66	-0.2298	0.0491	0.2789	1181.0162	0.170134	-365.933537	-365.924527	-365.923582	-365.967116	34.545	
C	 0.0975725666	 1.5195636942	-0.0731855333	-0.388014
C	 0.0132972809	-0.0033532809	-0.2189325448	-0.19195
C	-1.3893460206	-0.5525597289	 0.0056353359	 0.015415
C	-1.6054970351	-2.0666617009	-0.1163437779	-0.078047
N	-0.8041470315	-2.700423584	 0.9586872253	-0.323147
C	-2.1482328141	-2.1651904731	 1.2617872791	-0.05599
C	-1.9849590598	-0.6497839665	 1.4902201451	-0.217112
C	-1.1901250686	-0.2212086368	 2.6240658467	 0.37004
C	-0.5453931153	 0.1381111366	 3.5739523641	-0.477409
H	 1.1170260428	 1.8753568031	-0.2523034043	 0.109261
H	-0.5608674859	 2.0254121111	-0.7892710765	 0.103866
H	-0.1934471745	 1.834903716	 0.932982907	 0.130428
H	 0.335071075	-0.294534585	-1.2281605729	 0.08696
H	 0.699298066	-0.4917011436	 0.4792225119	 0.127444
H	-2.1125989633	-0.0146291262	-0.6162735502	 0.073466
H	-1.8731064798	-2.6202891608	-1.0082476007	 0.09248
H	-0.9019218872	-3.7097013778	 0.8538559257	 0.229798
H	-2.9248084118	-2.7982495392	 1.6725330019	 0.097546
H	-2.9632543929	-0.1607783668	 1.51732953	 0.102429
H	 0.0310112292	 0.4445255396	 4.4112378079	 0.192536
100.7826	114.8553	135.4055	182.541	212.3681	270.5598	357.3956	368.6843	489.2313	549.9233	611.7411	620.4037	632.2812	680.4801	755.7263	799.4429	835.315	843.2243	904.287	929.1925	965.5523	988.3058	1018.783	1036.1753	1075.8568	1100.1977	1110.0084	1125.6445	1148.4835	1182.12	1248.209	1258.2522	1298.7904	1316.2753	1329.493	1350.5377	1384.6541	1396.9406	1410.6724	1484.8571	1500.4256	1508.8739	2230.798	3017.8477	3029.3926	3046.7072	3065.7103	3083.1784	3101.4158	3113.8399	3181.045	3195.4779	3477.9035	3503.8463
CCC1C2NC2C1C#C	CC[C@H]1[C@H]2N[C@H]2[C@H]1C#C	
InChI=1S/C8H11N/c1-3-5-6(4-2)8-7(5)9-8/h1,5-9H,4H2,2H3	InChI=1S/C8H11N/c1-3-5-6(4-2)8-7(5)9-8/h1,5-9H,4H2,2H3/t5-,6+,7-,8+/m0/s1
