25
gdb 100116	3.44703	0.82373	0.81723	1.673	89.24	-0.2619	0.0747	0.3366	1594.6413	0.226399	-389.479114	-389.468134	-389.46719	-389.515583	40.73	
C	-0.2267376748	 1.4912842899	 0.1159543705	-0.405111
C	 0.0771116169	-0.0047671815	-0.0231337287	-0.175994
C	 0.8151458044	-0.4585430378	-1.3112104356	 0.266148
C	 0.0056773262	-0.0740567737	-2.5638397977	-0.409501
C	 2.2126588139	 0.1865504251	-1.3783804335	-0.416074
C	 0.9433508895	-2.0036262902	-1.2165258803	-0.230672
C	 1.6669103741	-2.6948220955	-2.3479500738	 0.077823
C	 1.320247372	-4.0591165009	-2.7682043808	-0.183079
O	 0.9325328306	-2.9338126721	-3.5561255358	-0.231518
H	 0.6824942164	 2.100079721	 0.1121508214	 0.116569
H	-0.8756344217	 1.8540241691	-0.6866274178	 0.119802
H	-0.7414596363	 1.6837998784	 1.0627368958	 0.112133
H	 0.6714252745	-0.3254660391	 0.8433508548	 0.086636
H	-0.8683990834	-0.5600283109	 0.0396464368	 0.089415
H	-0.074585005	 1.0125202244	-2.6642527079	 0.106074
H	 0.4728599555	-0.4606189542	-3.4725968883	 0.134769
H	-1.0091790616	-0.4844985802	-2.5184973121	 0.106891
H	 2.8238588117	-0.0939736938	-0.5123932145	 0.103913
H	 2.7514563567	-0.1138765022	-2.2821804344	 0.114529
H	 2.1452561192	 1.2780497054	-1.3986004563	 0.114509
H	 1.4667432245	-2.2555632724	-0.2831818871	 0.093851
H	-0.0609165775	-2.4390176102	-1.1418091671	 0.095842
H	 2.6948640169	-2.3764213644	-2.5255586924	 0.091411
H	 2.0798096819	-4.7026936275	-3.2104324969	 0.110954
H	 0.5052315854	-4.5822031368	-2.2687026682	 0.110683
34.0033	77.6004	102.0464	153.3375	205.4286	239.659	269.4152	276.3911	313.9978	334.8199	343.89	389.7891	410.9695	455.9226	552.7125	730.285	781.1094	789.1593	850.9459	882.734	913.5772	941.1134	945.5829	983.7204	1000.2353	1030.152	1046.2266	1074.5439	1100.4562	1120.9061	1158.0268	1169.8625	1209.2734	1215.7132	1252.5985	1278.568	1297.8549	1339.9977	1351.8136	1372.8646	1403.516	1410.3615	1427.8357	1448.9689	1462.8333	1481.4262	1481.737	1490.3966	1506.7439	1508.2499	1511.0761	1516.3352	1529.8799	3003.9518	3009.8668	3029.0972	3036.6914	3038.7892	3041.1971	3055.0735	3078.4247	3094.3826	3098.2704	3099.6039	3105.546	3108.5419	3113.2446	3124.2572	3164.1168
CCC(C)(C)CC1CO1	CCC(C)(C)C[C@H]1CO1	
InChI=1S/C8H16O/c1-4-8(2,3)5-7-6-9-7/h7H,4-6H2,1-3H3	InChI=1S/C8H16O/c1-4-8(2,3)5-7-6-9-7/h7H,4-6H2,1-3H3/t7-/m0/s1
