21
gdb 86954	4.46249	0.78749	0.7269	2.9337	85.9	-0.2438	-0.0206	0.2232	1600.443	0.181555	-387.117849	-387.108462	-387.107518	-387.153195	34.322	
C	 0.0298885202	 1.6495458737	-0.0181075417	-0.397002
C	 0.069419522	 0.1216418963	 0.0933282558	-0.012421
C	 0.6898780714	-0.5870454632	-1.1394190586	-0.241719
C	 1.4418101634	-1.8266360824	-0.5888307342	-0.041633
C	 2.7283130024	-2.1680627044	-1.3697621971	-0.282605
C	 3.3402320834	-3.4690086426	-0.9066217871	 0.160326
O	 4.4512805305	-3.5962632482	-0.4597685477	-0.242049
C	 1.667685436	-1.4490925855	 0.8614216065	-0.076684
C	 0.9264917112	-0.4053928322	 1.2254653573	-0.070881
H	 1.038456116	 2.0576342654	-0.1468028965	 0.116957
H	-0.5745233028	 1.9671181184	-0.874448019	 0.113975
H	-0.4031783664	 2.1020967888	 0.8803028499	 0.113533
H	-0.963500094	-0.2310806509	 0.2406713899	 0.079816
H	-0.0491404098	-0.8452678227	-1.9031134033	 0.096431
H	 1.4165429268	 0.0901477495	-1.6052523597	 0.100983
H	 0.7842759189	-2.710020294	-0.6329077294	 0.081753
H	 2.4734135724	-2.2844413904	-2.4332239403	 0.11519
H	 3.4711213774	-1.3704942598	-1.2756876978	 0.119317
H	 2.6588154413	-4.3491030289	-0.998855325	 0.068611
H	 2.3360003313	-2.0058004126	 1.5099395194	 0.105594
H	 0.8927122283	 0.0223561256	 2.2224032885	 0.092509
47.4772	51.5302	97.9378	197.4526	218.5363	248.8966	283.3012	362.2266	405.6119	496.2943	564.6502	586.2948	725.1212	768.8327	804.4207	848.8523	884.898	915.938	934.4699	972.9709	977.2274	1030.7205	1050.7623	1068.7612	1101.2062	1121.4605	1146.5355	1161.8388	1199.3471	1205.7338	1262.7822	1297.3696	1315.4673	1324.1654	1341.1456	1360.7632	1390.4227	1411.3514	1430.3251	1462.875	1488.7255	1497.5164	1499.214	1684.4877	1833.5448	2841.2337	2967.5762	2975.3444	3011.5045	3026.7976	3032.3251	3089.8768	3097.2673	3097.64	3098.8841	3174.8511	3200.5507
CC1CC(CC=O)C=C1	C[C@H]1C[C@@H](CC=O)C=C1	
InChI=1S/C8H12O/c1-7-2-3-8(6-7)4-5-9/h2-3,5,7-8H,4,6H2,1H3	InChI=1S/C8H12O/c1-7-2-3-8(6-7)4-5-9/h2-3,5,7-8H,4,6H2,1H3/t7-,8-/m1/s1
