18
gdb 78838	3.2677	1.31784	1.11062	3.7388	75.97	-0.2352	-0.0231	0.2121	1122.494	0.147098	-401.876524	-401.86865	-401.867705	-401.909182	30.133	
C	-0.145778633	 1.531578824	 0.1157527842	-0.426075
C	 0.038006718	 0.0511961629	-0.1646714856	 0.072122
C	 0.9612187156	-0.478549572	-1.2517399851	-0.114969
C	 2.3572499773	-0.6142789832	-0.6034353341	-0.087732
C	 1.2847905521	-1.6417031204	-0.37224588	-0.033212
N	 0.8104161094	-0.8071798504	 0.8420681553	-0.203354
C	 2.1934116513	-0.161243337	 0.841017989	-0.07476
C	 3.0909625752	-0.9239921901	 1.7871240047	 0.180218
O	 3.9220424216	-0.4084503478	 2.4889679022	-0.259564
H	 0.7870453144	 2.0967879953	 0.0533472893	 0.126994
H	-0.840192867	 1.9602607641	-0.6143469042	 0.121876
H	-0.5750936713	 1.6775876365	 1.1127654093	 0.134112
H	-0.9424875741	-0.4291491929	-0.2498060226	 0.089131
H	 0.8565163204	-0.464044692	-2.3299236393	 0.097112
H	 3.2542716052	-0.6934746107	-1.2047804817	 0.104029
H	 1.2129502241	-2.7144686945	-0.4715205802	 0.107544
H	 2.2309680428	 0.8997085947	 1.0962976087	 0.086905
H	 2.9327498479	-2.0253448566	 1.7808630702	 0.079621
71.8777	146.8325	186.7993	222.9765	282.1664	317.799	439.9101	526.6696	568.028	707.5195	763.9636	792.5973	808.8248	848.8658	862.6225	886.5022	901.1709	976.8139	1010.9934	1023.125	1028.6358	1033.378	1052.6655	1098.7885	1109.0504	1136.7873	1160.814	1173.7831	1241.8749	1255.1014	1291.1012	1310.6272	1354.9808	1396.1149	1411.928	1424.0703	1488.8639	1501.3429	1834.598	2888.4429	3038.8439	3049.9908	3097.643	3104.1695	3124.9636	3186.746	3195.7621	3231.2787
CC1C2C3C2N1C3C=O	C[C@H]1[C@H]2[C@@H]3[C@H]2N1[C@H]3C=O	
InChI=1S/C7H9NO/c1-3-5-6-4(2-9)8(3)7(5)6/h2-7H,1H3	InChI=1S/C7H9NO/c1-3-5-6-4(2-9)8(3)7(5)6/h2-7H,1H3/t3-,4-,5-,6+,7-/m0/s1
