18
gdb 60318	3.97219	0.6806	0.60711	5.077	74.73	-0.2819	-0.0802	0.2017	1782.2348	0.144267	-439.110517	-439.100176	-439.099232	-439.147124	35.801	
C	 0.0665292524	 1.5618143626	 0.0956296731	-0.405192
C	 0.0013651014	 0.0378221473	 0.0092043719	 0.118353
O	 0.6109620065	-0.5748301055	 1.1442612404	-0.434542
C	-1.4377088768	-0.4748576027	-0.0318802616	-0.179637
C	-1.5039625003	-1.9988014065	-0.1170894979	-0.309032
C	-2.9101742379	-2.5393340885	-0.0973195238	 0.284881
O	-3.9162322855	-1.8814738692	-0.0118585314	-0.266344
C	-3.0017887569	-4.0171912895	-0.1948970232	 0.227214
N	-3.060882171	-5.1691625223	-0.2756670178	-0.296986
H	 1.1067951254	 1.9043390816	 0.1350280147	 0.108442
H	-0.4021931018	 2.0272725022	-0.777378233	 0.121037
H	-0.4437287899	 1.9151451584	 0.9970487109	 0.129868
H	 0.5167937415	-0.2886925648	-0.9110156781	 0.066327
H	 1.5222814728	-0.2711594518	 1.1982143673	 0.286041
H	-1.96070924	-0.1384233211	 0.8696311829	 0.125377
H	-1.9597304559	-0.0288370088	-0.8842396881	 0.114634
H	-1.0165339809	-2.3798868542	-1.0265070515	 0.139866
H	-0.9498841733	-2.4567193471	 0.712335115	 0.169694
37.4603	65.3658	92.8562	128.3028	185.7484	245.4714	251.6719	276.9671	292.7151	344.353	454.0233	461.847	507.9635	570.9085	612.7807	774.7153	809.8329	876.5	945.7482	964.3402	1037.2735	1075.4025	1079.3778	1119.7234	1145.0026	1178.6662	1277.6691	1295.9981	1318.5501	1373.86	1394.9889	1407.5548	1429.4774	1440.7515	1475.4645	1494.0138	1499.1869	1798.7117	2336.858	2946.2615	3018.2476	3030.2922	3054.4512	3060.5891	3097.2776	3099.5221	3115.6468	3825.5222
CC(O)CCC(=O)C#N	C[C@@H](O)CCC(=O)C#N	
InChI=1S/C6H9NO2/c1-5(8)2-3-6(9)4-7/h5,8H,2-3H2,1H3	InChI=1S/C6H9NO2/c1-5(8)2-3-6(9)4-7/h5,8H,2-3H2,1H3/t5-/m1/s1
