19
gdb 76506	3.00031	1.36305	1.2024	2.6195	75.73	-0.2324	0.0593	0.2917	1111.6382	0.157933	-422.957255	-422.948735	-422.947791	-422.990204	32.855	
C	-0.146478453	 1.4964326139	-0.0192095215	-0.399356
C	-0.0309151078	-0.0110384388	-0.0565484858	-0.142466
C	 1.3364657889	-0.6887141153	-0.2085804919	 0.020973
O	 2.4958585595	 0.0830655667	-0.2065121892	-0.429773
C	 0.5840555415	-0.7711116726	 1.0810526371	 0.402199
O	 1.1929141959	-0.0825590715	 2.2012205546	-0.327817
C	 0.9084861134	-1.2211492636	 3.0337473439	 0.100026
C	-0.5655524526	-1.4398497979	 3.1493951446	-0.298518
C	 0.1817442825	-1.949361749	 1.9281933705	-0.228726
H	 0.7454745097	 1.9445303521	 0.4219672811	 0.131847
H	-0.2564732925	 1.8985900492	-1.0313955603	 0.118952
H	-1.0135201545	 1.8135780818	 0.5689452432	 0.114713
H	-0.8461749371	-0.5316521869	-0.5555338002	 0.087529
H	 1.4044120074	-1.5678952381	-0.8461557438	 0.094345
H	 2.7194329771	 0.229423467	 0.7238869649	 0.295442
H	 1.6654947541	-1.5225394266	 3.7468415893	 0.111334
H	-0.8672941528	-2.2121290955	 3.8505362822	 0.118184
H	-1.2406517425	-0.5929873497	 3.0704996348	 0.123173
H	 0.2080218326	-2.9873284152	 1.6266735466	 0.107941
122.1369	128.4121	158.6033	169.6603	239.0936	310.1093	400.3491	426.7981	481.3379	560.8908	606.4427	637.5082	753.6209	784.1686	821.5349	884.2766	888.3949	947.5686	957.5398	971.7698	993.5674	1044.1129	1045.1485	1058.9902	1080.1643	1089.3971	1101.6299	1143.3594	1156.6018	1174.4767	1195.7122	1264.6516	1297.6969	1335.9974	1345.948	1397.3222	1416.1124	1466.6573	1480.9577	1489.7449	1506.5355	3041.2994	3099.2705	3118.3033	3120.2222	3127.2401	3140.83	3191.9655	3206.7177	3215.7932	3727.8833
CC1C(O)C11OC2CC12	C[C@H]1[C@@H](O)[C@]21O[C@H]1C[C@@H]21	
InChI=1S/C7H10O2/c1-3-6(8)7(3)4-2-5(4)9-7/h3-6,8H,2H2,1H3	InChI=1S/C7H10O2/c1-3-6(8)7(3)4-2-5(4)9-7/h3-6,8H,2H2,1H3/t3-,4+,5-,6+,7+/m0/s1
