17
gdb 60906	3.42293	1.09572	1.04424	2.4391	69.12	-0.24	-0.0452	0.1948	1182.6889	0.134181	-458.916187	-458.907849	-458.906905	-458.949737	30.9	
O	 0.2226602104	 1.5625331693	-0.0258985472	-0.427207
C	 0.0356970505	 0.1758643005	 0.0517630932	-0.076189
C	 0.5135090061	-0.487981237	-1.2312665555	 0.135241
O	 0.976606811	 0.1538361953	-2.1425512425	-0.260092
C	 0.7489182318	-0.4226112957	 1.2380684568	 0.269188
C	 0.2896363839	-1.6635238776	 1.9851373603	-0.365235
C	 0.4482906326	-0.3698444472	 2.720488354	 0.052554
O	 1.8095401985	-0.1389695605	 3.0717465901	-0.281842
C	 2.1784891702	-0.0889335327	 1.6650417494	-0.133128
H	 0.5739136067	 1.7290593347	-0.9156144833	 0.296737
H	-1.0387379856	-0.0724264921	 0.1436013567	 0.09439
H	 0.4192301084	-1.5910522817	-1.2758985138	 0.106916
H	-0.7360238756	-1.9609506623	 1.7852497114	 0.118296
H	 0.9782350598	-2.481337639	 2.1786658019	 0.120827
H	-0.322979458	 0.1332847817	 3.2918268481	 0.116211
H	 2.9721810053	-0.8027478578	 1.4153757369	 0.105565
H	 2.4718477341	 0.9262714122	 1.3827113635	 0.127768
57.0815	96.2082	157.291	242.977	290.3507	318.0528	356.4281	446.4337	461.5583	511.4164	662.7644	757.8737	780.1124	839.1364	850.8187	912.69	934.9704	984.3782	998.4068	1006.8549	1030.9241	1065.3666	1084.3978	1103.7001	1156.405	1163.0186	1203.7131	1265.7716	1289.1134	1300.658	1348.2496	1389.8827	1398.9478	1436.6247	1480.0561	1511.3402	1812.1202	2927.3714	2948.0377	3031.6335	3096.7137	3113.3908	3186.068	3204.7807	3684.3618
OC(C=O)C12CC1OC2	O[C@@H](C=O)[C@]12C[C@H]1OC2	
InChI=1S/C6H8O3/c7-2-4(8)6-1-5(6)9-3-6/h2,4-5,8H,1,3H2	InChI=1S/C6H8O3/c7-2-4(8)6-1-5(6)9-3-6/h2,4-5,8H,1,3H2/t4-,5+,6+/m0/s1
