16
gdb 35141	4.49508	0.95372	0.87203	3.6065	80.85	-0.2685	-0.0118	0.2568	1301.791	0.124514	-363.602068	-363.59382	-363.592876	-363.635411	30.712	
C	-0.0087690379	-1.294969359	 0.0117670052	-0.455245
C	 0.0079424779	-0.0935667982	-0.0159523459	 0.308549
C	 0.0323931292	 1.3641659914	-0.0394109204	-0.195534
C	-0.6801636763	 2.0167245033	 1.18348874	-0.239718
C	 0.1410071574	 3.3030648544	 1.5005745928	-0.201347
C	 1.487010666	 3.0118194742	 0.8509131403	-0.082526
C	 1.4263193105	 1.9692854278	 0.0307642828	-0.051809
C	-0.4652629435	 4.5208280382	 0.947097886	 0.268986
N	-0.9409540758	 5.4776701775	 0.5057671806	-0.324462
H	-0.0255126323	-2.3566469944	 0.0311317429	 0.201485
H	-0.4468528002	 1.6986099443	-0.9716641444	 0.129866
H	-1.7352018826	 2.2204200926	 0.9981878292	 0.134109
H	-0.6071427948	 1.3400813759	 2.0372630282	 0.130998
H	 0.2307964051	 3.4539587336	 2.5823835147	 0.131871
H	 2.3531709577	 3.6368834455	 1.0283596431	 0.122609
H	 2.2448804495	 1.5813102828	-0.5628411251	 0.122168
53.7602	114.0844	161.2544	197.8256	266.9651	379.0854	453.256	506.1695	518.4486	582.6685	627.4121	646.9656	663.3552	749.7469	797.6481	835.6781	864.3153	952.5677	972.3641	995.4191	1037.4629	1055.9549	1071.7561	1136.6839	1197.5071	1238.2348	1278.3283	1299.16	1313.9667	1342.374	1371.6931	1489.0531	1689.4715	2238.9002	2352.2245	2994.0521	3044.8281	3085.6505	3141.1789	3205.1374	3229.035	3503.4762
C#CC1CC(C=C1)C#N	C#C[C@H]1C[C@@H](C=C1)C#N	
InChI=1S/C8H7N/c1-2-7-3-4-8(5-7)6-9/h1,3-4,7-8H,5H2	InChI=1S/C8H7N/c1-2-7-3-4-8(5-7)6-9/h1,3-4,7-8H,5H2/t7-,8-/m1/s1
