17
gdb 62740	2.56721	1.54482	1.25706	3.5117	68.89	-0.2551	-0.0071	0.248	1050.7348	0.133208	-458.958151	-458.949242	-458.948298	-458.991191	33.408	
C	 0.0055142204	 1.5320343661	 0.0502705081	-0.46483
C	 0.054584171	 0.016380493	 0.0525819596	 0.23322
C	-1.1858345129	-0.6570461248	-0.514761867	-0.450317
C	 1.3267192259	-0.7448264364	-0.1795670193	-0.045928
O	 2.4581629406	-0.0051835157	 0.3561877699	-0.259928
C	 1.963825689	-0.1337921436	 1.6529807036	 0.389957
O	 2.5113919447	 0.1440439136	 2.6689845087	-0.328518
C	 0.6794856691	-0.7934051742	 1.2034344641	 0.145978
O	-0.0662974139	-1.6983613483	 1.9096163354	-0.441267
H	 0.9457611659	 1.9736204855	 0.3847042172	 0.146823
H	-0.1959242874	 1.8990637848	-0.9620527479	 0.122505
H	-0.7978253357	 1.8901193596	 0.7021244246	 0.128404
H	-1.3733819511	-0.290874462	-1.5291735954	 0.124344
H	-1.0854113002	-1.7444046049	-0.54935068	 0.127978
H	-2.0625160437	-0.426969411	 0.0981137333	 0.137889
H	 1.5378479285	-1.502104878	-0.9218062462	 0.130246
H	 0.5232339997	-2.3552932538	 2.2981923913	 0.303443
118.3567	179.9432	184.84	195.3102	250.7686	268.5096	305.4281	336.9568	351.426	421.5145	532.5183	560.1693	643.4434	701.357	748.4336	790.2554	889.2953	915.6603	938.2987	972.4143	973.7284	1021.6486	1045.7479	1098.1563	1150.0997	1213.3454	1263.633	1311.5675	1326.8433	1406.8551	1424.1014	1453.3881	1478.854	1485.9396	1501.9415	1512.9636	1936.3297	3038.2336	3042.852	3098.9563	3108.9127	3124.3077	3137.1922	3219.0425	3791.868
CC1(C)C2OC(=O)C12O	CC1(C)[C@H]2OC(=O)[C@@]12O	
InChI=1S/C6H8O3/c1-5(2)3-6(5,8)4(7)9-3/h3,8H,1-2H3	InChI=1S/C6H8O3/c1-5(2)3-6(5,8)4(7)9-3/h3,8H,1-2H3/t3-,6-/m1/s1
