16
gdb 83200	2.9904	1.50112	1.3121	2.9635	66.11	-0.2419	0.0116	0.2535	995.402	0.125103	-474.991051	-474.983526	-474.982582	-475.023391	28.907	
O	 0.3254643307	 1.1936317952	 0.2981900889	-0.41966
C	 0.0963553994	-0.1467929361	 0.0452501038	 0.084749
C	-1.3370806558	-0.6248301036	-0.0280578828	-0.030431
O	-2.2745136754	 0.407073779	 0.0840081065	-0.25889
C	-2.9761502411	 0.5968192832	-1.1449576608	-0.173184
C	-2.0348032609	 0.9808052153	-2.2644520409	 0.388452
N	-2.3919448763	 1.7927572927	-3.1625967981	-0.511493
O	-0.7918303919	 0.4188992373	-2.2343849081	-0.229998
C	-0.5003319483	-0.5783639262	-1.2850761565	 0.010435
H	-0.5395263493	 1.5992316613	 0.4506146867	 0.298765
H	 0.8389365084	-0.802184854	 0.4908307738	 0.111547
H	-1.6510057259	-1.5759290388	 0.3978106486	 0.105636
H	-3.5256451817	-0.3178115515	-1.4097199513	 0.126746
H	-3.6911938409	 1.4050839331	-0.9979987158	 0.154961
H	-1.6476871953	 1.914901815	-3.8527153643	 0.227146
H	-0.1692461459	-1.5017857119	-1.7494182498	 0.11522
60.6421	156.7283	202.7916	305.6975	384.1069	414.5004	448.5922	495.9337	572.8266	622.2559	659.9311	741.1533	785.2994	810.2981	841.5302	914.3432	944.9809	1005.137	1044.1749	1066.5114	1075.2134	1104.3089	1118.7365	1167.5266	1178.8944	1245.5245	1270.6552	1299.7825	1336.6141	1360.7748	1380.5076	1396.9954	1446.1291	1482.7961	1767.0705	3010.5	3118.3548	3151.0548	3152.7992	3162.6182	3465.6518	3743.7238
OC1C2OCC(=N)OC12	O[C@H]1[C@H]2OC[C]([NH])O[C@@H]12	
InChI=1S/C5H7NO3/c6-2-1-8-4-3(7)5(4)9-2/h3-7H,1H2	InChI=1S/C5H7NO3/c6-2-1-8-4-3(7)5(4)9-2/h3-7H,1H2/t3-,4+,5-/m0/s1
