14
gdb 24497	3.97659	1.76721	1.22349	2.5485	78.13	-0.2291	-0.046	0.183	929.8871	0.106193	-395.812867	-395.806965	-395.806021	-395.842921	24.126	
N	-0.0352677934	 1.3349790217	 0.0099323887	-0.364074
C	 1.2577681501	 1.8242838158	-0.0001787524	-0.039408
C	 2.15897704	 0.7929388592	-0.0143734173	-0.278011
C	 1.3897853638	-0.4132958494	-0.0131912542	 0.323314
C	 0.0150354037	-0.0338525844	 0.0022562547	 0.388966
N	-1.0075473977	-0.8745653162	 0.0078576988	-0.346913
C	-0.6280930451	-2.1560475281	-0.0025769731	-0.042016
C	 0.7188549202	-2.5572879967	-0.0178690014	-0.043589
N	 1.7432060181	-1.7046142726	-0.0234259035	-0.337182
H	-0.8799334657	 1.8809069205	 0.0211129471	 0.271412
H	 1.4297812445	 2.8895480102	 0.0037120716	 0.13634
H	 3.2335729143	 0.8791876387	-0.0244272981	 0.115185
H	-1.4179136457	-2.9018765377	 0.0012466451	 0.109679
H	 0.9609905227	-3.616804681	-0.0258006659	 0.106297
234.242	247.4358	434.0549	457.0094	475.0825	566.3895	612.3015	625.8368	647.3577	754.1563	771.9848	848.3141	865.1416	877.9205	894.348	925.4271	968.0583	1069.1482	1082.1509	1109.5011	1201.0521	1265.5776	1280.3786	1343.2462	1376.8618	1417.0545	1443.855	1521.9137	1540.4807	1590.2297	1632.6276	3157.1053	3176.8958	3254.143	3273.0692	3672.7949
N1C=CC2=C1N=CC=N2	[nH]1ccc2c1nccn2	
InChI=1S/C6H5N3/c1-2-8-6-5(1)7-3-4-9-6/h1-4H,(H,8,9)	InChI=1S/C6H5N3/c1-2-8-6-5(1)7-3-4-9-6/h1-4H,(H,8,9)
