23
gdb 116863	3.84783	0.56325	0.55056	1.8746	92.5	-0.2462	0.0476	0.2938	2184.9129	0.201849	-388.278892	-388.267115	-388.266171	-388.316982	42.025	
C	-0.0217922989	 1.5894570196	-0.1276714931	-0.382142
C	-0.0399233207	 0.0650412886	-0.2546323084	-0.152379
C	-1.3395920363	-0.5552755068	 0.2972154594	-0.336474
C	-1.3822180261	-2.0094233844	 0.1863803936	-0.061324
C	-1.4034737986	-3.2105459804	 0.0856696557	 0.170166
C	-1.3975854898	-4.6785963888	-0.0203916557	 0.175015
C	-2.8230412101	-5.2162272846	-0.2048730087	-0.382708
C	-0.4896812006	-5.1192111403	-1.184359764	-0.395851
O	-0.9324258358	-5.2629082848	 1.2050557662	-0.443956
H	 0.9077361896	 2.0079093666	-0.5249976871	 0.115108
H	-0.853275904	 2.0442576959	-0.6776360676	 0.11636
H	-0.1072042645	 1.9026677006	 0.9188856757	 0.11631
H	 0.0735738499	-0.227770623	-1.3044473075	 0.108404
H	 0.8132854835	-0.3679732255	 0.2796670339	 0.105908
H	-1.4620538378	-0.2649956696	 1.349690556	 0.126673
H	-2.2000587685	-0.1242173255	-0.2326739416	 0.126678
H	-3.2606959531	-4.8397639821	-1.1325105043	 0.118136
H	-2.7963388972	-6.309235861	-0.2396409962	 0.119598
H	-3.4505298305	-4.90778179	 0.633869468	 0.129217
H	 0.5307152212	-4.7534804575	-1.0336535668	 0.110044
H	-0.4663315049	-6.2116209315	-1.2331492518	 0.119384
H	-0.8524689169	-4.7253149364	-2.1381836187	 0.11961
H	-0.11287358	-4.8162734891	 1.4429886629	 0.278224
27.9349	65.89	68.4874	133.1923	162.8997	220.9041	232.8843	263.3168	274.6875	288.8833	324.6933	361.875	368.0335	403.9101	487.7405	563.5214	573.1332	671.3155	743.0648	857.4284	872.0799	892.9475	928.9488	954.6435	1016.6155	1037.4375	1079.6098	1109.4196	1122.286	1127.3905	1190.8626	1250.6386	1260.7222	1308.9819	1323.8331	1367.0754	1384.4369	1390.96	1411.4016	1411.9501	1471.4151	1475.4793	1479.1179	1491.2772	1493.1699	1497.8023	1504.4597	1508.3786	2356.0556	3009.479	3029.8377	3035.8691	3036.8406	3040.3895	3049.5485	3072.446	3099.9815	3105.6465	3111.8524	3119.8474	3127.7437	3138.0034	3810.8454
CCCC#CC(C)(C)O	CCCC#CC(C)(C)O	
InChI=1S/C8H14O/c1-4-5-6-7-8(2,3)9/h9H,4-5H2,1-3H3	InChI=1S/C8H14O/c1-4-5-6-7-8(2,3)9/h9H,4-5H2,1-3H3
