16
gdb 125640	3.44644	1.59261	1.09666	3.4572	77.16	-0.1938	0.03	0.2239	1055.2608	0.127017	-396.963173	-396.955297	-396.954353	-396.995382	29.566	
C	-0.0162982279	 1.5003941488	-0.0785635253	-0.498013
C	 0.0060739592	 0.0105918624	 0.0427966969	 0.201079
N	 0.0006822925	-0.7488656459	-1.0489550476	-0.292677
N	 0.025243226	-2.0540871044	-0.6177861597	-0.371165
C	 0.0453465358	-2.0962826953	 0.7335690019	 0.452846
C	 0.0343946153	-0.7934514464	 1.2199624501	 0.20614
C	 0.0566301501	-0.9007408045	 2.6519739625	-0.35134
C	 0.0794075699	-2.2383045984	 2.9471965426	-0.058952
N	 0.0725759823	-2.9889308314	 1.7633710055	-0.41917
H	 0.8662582129	 1.9518946722	 0.3889532054	 0.124969
H	-0.036160151	 1.7882932068	-1.1317010741	 0.137671
H	-0.8964480612	 1.9275722661	 0.4155793402	 0.124957
H	 0.0247395239	-2.7910143403	-1.2982360207	 0.265119
H	 0.0561752917	-0.1041820802	 3.3795170173	 0.097277
H	 0.1002289551	-2.7454569932	 3.8986799786	 0.119434
H	 0.0859538554	-3.9908347663	 1.7097950063	 0.261825
119.9469	159.7535	184.8829	244.8745	252.1776	281.727	415.8777	519.3463	601.9437	613.953	645.3303	693.63	695.7534	766.6905	814.8323	822.7526	926.9223	995.0499	1050.0079	1063.9793	1086.2299	1098.4254	1163.6411	1218.6796	1316.0635	1345.561	1395.4689	1415.1579	1449.086	1481.9842	1492.5382	1512.6108	1524.7086	1577.0706	1646.1789	3030.1367	3078.8687	3131.5108	3248.5617	3269.4325	3698.2427	3704.4439
CC1=NNC2=C1C=CN2	Cc1n[nH]c2c1cc[nH]2	
InChI=1S/C6H7N3/c1-4-5-2-3-7-6(5)9-8-4/h2-3H,1H3,(H2,7,8,9)	InChI=1S/C6H7N3/c1-4-5-2-3-7-6(5)9-8-4/h2-3H,1H3,(H2,7,8,9)
