18
gdb 118336	2.16072	1.37273	0.94635	2.5238	71.6	-0.2417	0.0053	0.247	1249.8286	0.147742	-472.445781	-472.436027	-472.435082	-472.481047	34.917	
N	 0.4551597857	 0.9088601285	-0.4070434525	-0.562751
C	 0.3052396261	-0.3262671904	 0.1142951965	 0.480936
O	 1.166870079	-0.9340569179	 0.7268555747	-0.414402
N	-0.9694057053	-0.9323983056	-0.1039030654	-0.116411
C	-1.1243118224	-2.2830099487	 0.4422942968	-0.177358
C	-1.6132315708	-2.2868482395	 1.8843875776	-0.071313
O	-2.9358414851	-1.7656427725	 1.8976468426	-0.422221
C	-2.0750255123	-0.3331396471	-0.6689330063	 0.137804
N	-2.1035799855	 0.8533833555	-1.1462685222	-0.512955
H	 1.3267650765	 1.369552986	-0.2123790884	 0.257828
H	-0.3411029564	 1.3758547235	-0.8372322547	 0.286651
H	-1.8362179444	-2.8295068887	-0.1833319347	 0.113519
H	-0.1543253489	-2.7756648181	 0.3885844941	 0.147734
H	-1.5868636697	-3.3201243849	 2.2648349037	 0.091141
H	-0.9290368501	-1.6828752015	 2.4937905814	 0.118807
H	-3.1632411747	-1.5307404376	 2.8012340477	 0.29279
H	-2.9381293224	-1.0012573266	-0.6590646053	 0.119868
H	-3.0257434592	 1.0668221256	-1.5138737757	 0.230332
54.6485	80.2462	98.9376	162.2163	225.8248	232.6807	293.5117	330.994	377.7879	405.3017	470.6414	498.6113	557.3286	673.148	708.068	745.6848	782.3549	795.738	885.1933	956.9012	1034.7892	1051.5327	1094.3597	1135.0553	1147.6231	1222.3009	1245.6776	1270.954	1312.4672	1353.6973	1402.9149	1419.6513	1437.3617	1447.9071	1470.7427	1519.0443	1603.3775	1707.5065	1795.8321	2982.5374	3044.3746	3070.9801	3109.968	3151.0466	3400.1068	3535.2107	3706.0256	3842.2699
NC(=O)N(CCO)C=N	NC(=O)N(CCO)C=N	
InChI=1S/C4H9N3O2/c5-3-7(1-2-8)4(6)9/h3,5,8H,1-2H2,(H2,6,9)	InChI=1S/C4H9N3O2/c5-3-7(1-2-8)4(6)9/h3,5,8H,1-2H2,(H2,6,9)
