18
gdb 86962	3.32605	0.98778	0.92204	3.966	76.69	-0.2599	-0.0096	0.2503	1326.0122	0.147695	-439.08566	-439.076895	-439.075951	-439.120887	31.877	
O	-0.697077491	 1.2637244165	-0.8000018134	-0.432173
C	-0.1067193367	 0.1489835208	-0.1424263311	 0.101222
C	-1.1223674447	-0.9218016763	 0.3261038842	-0.2715
C	-1.0986794839	-2.0083333897	-0.7615206946	 0.062625
O	-2.1648616767	-1.7461473595	-1.7030367751	-0.201322
C	-2.6792968953	-2.7925707065	-2.374807316	 0.123993
N	-3.5036465037	-2.6022826198	-3.311475431	-0.441257
C	 0.2427903276	-1.8019257012	-1.4301488453	-0.077705
C	 0.7859158499	-0.6360539107	-1.0834781826	-0.091113
H	-1.1829205244	 0.9213207193	-1.5606228627	 0.28823
H	 0.4402520031	 0.5822151755	 0.7000753275	 0.089945
H	-0.7933632401	-1.3574184634	 1.2741923614	 0.10996
H	-2.1205029206	-0.5037802913	 0.4661829471	 0.126879
H	-1.237052257	-3.0173644887	-0.355363105	 0.084525
H	-2.3210246789	-3.7657728572	-2.0085734539	 0.082387
H	-3.8153176309	-3.4957530092	-3.686340337	 0.228993
H	 0.6448306534	-2.5076019566	-2.1486336606	 0.105789
H	 1.7102063999	-0.224484042	-1.4727871218	 0.11052
26.6639	49.3758	112.3679	203.0344	246.3009	365.8549	388.2074	409.4785	427.6325	519.6565	630.075	758.0486	793.3316	813.0225	816.7384	824.2469	904.5299	950.8136	983.2509	988.0523	1012.8171	1044.2137	1055.9838	1086.8221	1107.4374	1135.9367	1197.9976	1245.3215	1289.682	1296.0653	1316.4778	1329.097	1356.933	1380.496	1425.3245	1437.921	1466.9403	1676.6222	1743.1399	3008.3252	3034.372	3062.8006	3076.6149	3131.0563	3187.6203	3213.1535	3518.2656	3782.6321
OC1CC(OC=N)C=C1	O[C@H]1C[C@@H](O[CH][NH])C=C1	
InChI=1S/C6H9NO2/c7-4-9-6-2-1-5(8)3-6/h1-2,4-8H,3H2	InChI=1S/C6H9NO2/c7-4-9-6-2-1-5(8)3-6/h1-2,4-8H,3H2/t5-,6+/m1/s1
