18
gdb 56980	2.8884	1.24855	0.98125	4.5021	75.37	-0.2685	0.0374	0.3059	1212.5191	0.147181	-401.926173	-401.917657	-401.916712	-401.959694	31.602	
C	 0.0796275858	 1.4932524638	-0.0952619619	-0.401576
C	 0.0374047916	-0.0384114659	 0.0619985463	-0.147604
C	 0.6959773657	-0.4478345931	 1.3079700087	 0.268013
N	 1.19330469	-0.7709173329	 2.3003272626	-0.32869
C	-1.3940070352	-0.5991510076	 0.0293430687	-0.00857
C	-2.1977922352	-0.4924125405	-1.322380343	-0.291458
C	-2.2941536557	-2.0226662386	-1.3237668908	 0.035764
O	-0.9522499491	-2.5241034084	-1.3156892139	-0.241554
C	-1.5343735786	-2.1296154024	-0.0683213693	 0.011552
H	 1.1092455202	 1.8590499928	-0.0918606621	 0.139575
H	-0.3861310184	 1.7827414605	-1.0409350243	 0.129264
H	-0.4594014869	 1.9842611695	 0.7200958031	 0.135151
H	 0.587636025	-0.5033709178	-0.7648363391	 0.141607
H	-1.9758582672	-0.1963611094	 0.8633287189	 0.096767
H	-3.1576407503	 0.0126728246	-1.196884235	 0.115166
H	-1.6703184578	-0.0678034727	-2.1804021708	 0.114641
H	-3.0604785636	-2.6631394373	-1.7431346621	 0.11304
H	-1.5564809905	-2.8642880547	 0.727315284	 0.118913
69.052	121.4419	144.6403	214.7628	232.0919	276.1898	361.6013	398.5819	496.6153	549.0753	616.6366	740.5453	792.8376	844.9254	852.0635	878.8823	923.6326	934.5212	971.0462	1003.4752	1023.4079	1048.1978	1091.2907	1100.8363	1133.0851	1181.5908	1220.4821	1239.9367	1242.7556	1270.4752	1280.2741	1339.8573	1370.6158	1391.4567	1413.3768	1473.3116	1494.3199	1499.7161	2353.9675	3046.252	3049.5137	3067.2262	3075.716	3123.2876	3126.9683	3129.2843	3190.2153	3205.1297
CC(C#N)C1CC2OC12	C[C@@H](C#N)[C@H]1C[C@H]2O[C@@H]12	
InChI=1S/C7H9NO/c1-4(3-8)5-2-6-7(5)9-6/h4-7H,2H2,1H3	InChI=1S/C7H9NO/c1-4(3-8)5-2-6-7(5)9-6/h4-7H,2H2,1H3/t4-,5+,6+,7-/m0/s1
