17
gdb 35365	3.82522	1.44137	1.28597	1.791	76.52	-0.2327	0.0367	0.2694	1001.7829	0.136758	-384.617748	-384.610716	-384.609771	-384.649063	28.637	
C	-0.0607582184	-1.2290455811	-0.0938760776	-0.448955
C	-0.0389687449	-0.0309222099	-0.007108601	 0.333918
C	 0.0051318796	 1.4243280575	 0.049427789	-0.058225
O	-0.5575807308	 1.8966748685	 1.2905172521	-0.274154
C	 0.1819549988	 3.044577825	 1.6565276857	 0.115658
C	 1.6523576734	 2.9020182391	 1.9936164307	-0.098618
C	 2.1908833452	 1.6325164304	 1.3335271359	-0.236186
C	 1.4212972385	 2.0319281518	 0.033553308	-0.071816
C	 1.183540176	 3.4443971031	 0.6330598834	-0.140958
H	-0.0893288632	-2.2886217573	-0.1601095169	 0.198756
H	-0.58204999	 1.8343141397	-0.7884654851	 0.096885
H	-0.4077361649	 3.77805179	 2.1926998785	 0.104458
H	 2.1024415582	 3.4419019285	 2.8191183659	 0.084793
H	 3.2716228979	 1.6839938871	 1.1840500917	 0.103882
H	 1.9291457783	 0.6708750541	 1.7843983628	 0.114265
H	 1.9411666777	 1.9281489127	-0.9169158948	 0.085414
H	 1.2890392384	 4.4085121408	 0.1541710516	 0.090884
111.2835	150.7586	268.8004	350.452	468.894	500.005	517.7719	622.2333	651.6004	666.3848	723.0039	746.8509	787.4099	814.7276	841.1067	911.5062	928.5438	974.3092	990.4458	1008.871	1012.8271	1034.2461	1044.9629	1068.3634	1100.0571	1123.0052	1148.1401	1198.1044	1228.2614	1267.9394	1285.4268	1301.0783	1339.1775	1359.9462	1400.6817	1495.4795	2241.2054	2967.1857	3058.0708	3112.5187	3135.2566	3172.498	3191.936	3205.0264	3503.5328
C#CC1OC2C3CC1C23	C#C[C@H]1O[C@H]2[C@H]3C[C@@H]1[C@@H]23	
InChI=1S/C8H8O/c1-2-6-4-3-5-7(4)8(5)9-6/h1,4-8H,3H2	InChI=1S/C8H8O/c1-2-6-4-3-5-7(4)8(5)9-6/h1,4-8H,3H2/t4-,5-,6+,7+,8-/m0/s1
