19
gdb 35948	3.2982	1.1902	0.91931	1.6927	83.82	-0.2472	-0.0007	0.2465	1274.2315	0.159104	-385.849236	-385.840708	-385.839764	-385.882641	32.867	
C	 0.0778767247	-1.2682708671	 0.2363514712	-0.414085
C	 0.0082275733	-0.072969749	 0.1453718651	 0.296694
C	-0.0552456807	 1.382851038	 0.0055236255	-0.109696
O	-0.7155994447	 1.9002070325	 1.1576475647	-0.248076
C	-1.3198325993	 3.1682425127	 0.9761470318	-0.06303
C	-0.3373486998	 4.3403143634	 0.9943788886	-0.190955
C	 0.6088257465	 4.4094688204	-0.2159159138	-0.260099
C	 1.5979396285	 3.2729325279	-0.3311641173	-0.077334
C	 1.3306322841	 1.971994546	-0.2327919677	-0.043073
H	 0.1294461982	-2.325308239	 0.3245181622	 0.196214
H	-0.6803994616	 1.6082443888	-0.8789739181	 0.102496
H	-1.9019196753	 3.1783510638	 0.0379048229	 0.083616
H	-2.0293892945	 3.270751514	 1.8034971476	 0.107318
H	-0.9250782394	 5.2664672802	 1.0360629382	 0.094188
H	 0.2494197867	 4.2880203518	 1.9182026891	 0.112338
H	 0.0050810064	 4.4586607562	-1.1356813717	 0.111277
H	 1.1602409231	 5.3543617737	-0.1770503088	 0.104376
H	 2.6305157301	 3.5575985713	-0.5209181989	 0.093715
H	 2.1337877037	 1.2501775145	-0.3429895804	 0.104115
47.7633	140.2238	178.4918	225.9724	310.4906	332.5574	378.4087	445.4218	490.6592	532.0075	560.1237	618.8177	667.1451	686.9534	710.3371	800.1626	879.1888	913.9188	934.4504	967.3307	995.2269	1029.7432	1043.3527	1075.4966	1106.6949	1143.4537	1215.7057	1239.6064	1274.2128	1293.0666	1308.9491	1356.8767	1370.8754	1382.7492	1412.5292	1421.1004	1470.5997	1478.7001	1492.0421	1719.9111	2245.9307	2918.5419	2954.9595	2991.0669	3024.5357	3067.3799	3072.5157	3079.1375	3146.2191	3182.438	3504.4794
C#CC1OCCCC=C1	C#C[C@H]1OCCCC=C1	
InChI=1S/C8H10O/c1-2-8-6-4-3-5-7-9-8/h1,4,6,8H,3,5,7H2	InChI=1S/C8H10O/c1-2-8-6-4-3-5-7-9-8/h1,4,6,8H,3,5,7H2/t8-/m1/s1
