18
gdb 22154	2.04152	1.17264	0.90081	2.0967	72.08	-0.2451	-0.0291	0.216	1337.974	0.143209	-476.173775	-476.163412	-476.162468	-476.210748	35.512	
C	 1.0437047018	 0.3872224285	 0.0616183559	-0.482407
C	-0.2320302116	-0.3974732336	 0.1778769546	 0.338119
C	-0.8443262772	-0.6001165934	 1.5432287885	-0.159606
O	-0.0159259567	-1.3657436437	 2.4140582325	-0.23804
C	-0.048091935	-2.7556644366	 2.1799461363	-0.157067
C	 0.894274923	-3.2268494053	 1.0765312986	 0.134975
O	 0.8175805468	-4.3074436941	 0.5556852417	-0.235584
N	-0.8740266246	-0.9320829783	-0.7915440135	-0.147882
O	-0.2685253581	-0.6913067117	-2.0266582128	-0.389154
H	 1.6050603751	 0.3313186646	 0.9970751446	 0.138425
H	 1.6565067045	 0.0180063706	-0.7624445701	 0.154068
H	 0.8246620646	 1.4428724353	-0.1409402149	 0.143211
H	-0.9656456486	 0.3672264356	 2.0437023533	 0.116341
H	-1.8309869234	-1.0662097955	 1.4295410525	 0.116918
H	 0.2890024761	-3.2335778547	 3.1097271341	 0.140054
H	-1.0608770487	-3.1241981934	 1.9655880708	 0.128657
H	 1.6985665588	-2.4991445801	 0.8242274991	 0.087523
H	-0.8279010368	-1.1916060642	-2.6308950814	 0.31145
42.551	51.8004	73.3624	105.9659	139.9776	204.2077	300.1795	313.4641	329.5873	389.3157	420.9849	462.6372	539.2296	546.9058	663.6234	724.882	819.0222	938.2103	963.002	996.9273	1032.429	1051.8447	1080.7016	1113.3019	1144.4252	1260.8267	1275.1626	1314.4031	1347.8576	1382.9234	1397.3831	1401.9534	1411.4471	1448.7574	1476.5158	1484.6539	1486.5666	1727.4266	1837.7529	2882.5472	3009.4924	3024.1901	3037.867	3058.5264	3078.8383	3106.2159	3146.9707	3814.678
CC(COCC=O)=NO	CC(=NO)COCC=O	
InChI=1S/C5H9NO3/c1-5(6-8)4-9-3-2-7/h2,8H,3-4H2,1H3	InChI=1S/C5H9NO3/c1-5(6-8)4-9-3-2-7/h2,8H,3-4H2,1H3
