17
gdb 39606	2.49072	1.6124	0.987	0.802	98.07	-0.206	-0.0624	0.1435	1166.7598	0.137922	-347.51376	-347.505835	-347.504891	-347.547517	29.952	
C	 0.1568588702	 1.3898241641	 0.6446032994	-0.41597
C	 0.9776040946	 2.233378	-0.2883787094	-0.082883
C	 1.7224815492	 1.9690020995	-1.383289914	-0.052482
C	 2.1499672676	 0.8981938455	-2.2962336778	-0.07327
C	 2.273349188	-0.4511215553	-2.5073273233	-0.093067
C	 1.9822015873	-1.73566182	-1.9075742175	-0.056612
C	 1.239408626	-2.0802944746	-0.8267466692	-0.255335
C	 0.6381738526	-1.0783516357	-0.0640877131	 0.134018
C	 0.277880632	-0.0186839572	 0.3845274122	 0.022487
H	 0.4575913668	 1.6256376416	 1.6769075652	 0.150185
H	-0.8914708263	 1.7225285414	 0.5836236119	 0.151371
H	 0.9380980117	 3.2863209659	-0.0136402002	 0.093613
H	 2.1358561696	 2.8982980676	-1.7755141659	 0.090829
H	 2.5950400468	 1.4095847071	-3.1498074806	 0.091909
H	 2.7796881323	-0.6237128799	-3.4566288684	 0.090142
H	 2.4179461114	-2.5637658911	-2.462672342	 0.093303
H	 1.1181805502	-3.1271531889	-0.5678130573	 0.111763
16.2013	145.6934	235.4577	267.039	272.7551	379.0866	431.2104	496.5089	591.6186	599.7458	677.7791	689.6517	757.1677	788.5729	806.694	856.4288	894.5068	915.3466	925.6871	984.8025	1013.0129	1029.2248	1060.275	1193.9429	1212.0159	1253.5768	1304.8146	1382.9733	1424.9723	1454.2575	1461.0255	1478.197	1519.7731	1570.1225	1640.1541	1670.2435	2350.3364	2992.626	3009.8135	3085.3358	3107.2988	3125.8828	3141.9905	3149.0952	3177.9418
C1C=CC=CC=CC#C1	C1C=CC=CC=CC#C1	
InChI=1S/C9H8/c1-2-4-6-8-9-7-5-3-1/h1-6H,7H2/b2-1-,5-3-,6-4-	InChI=1S/C9H8/c1-2-4-6-8-9-7-5-3-1/h1-6H,7H2/b2-1-,5-3-,6-4-
