22
gdb 60596	3.68204	0.97509	0.90107	1.6806	81.94	-0.2393	0.049	0.2883	1391.9032	0.194925	-404.303423	-404.294158	-404.293214	-404.337961	34.896	
O	-0.4320743825	 1.270744908	-0.1117665428	-0.434024
C	-0.0728204664	-0.1073212242	-0.0428743021	 0.050863
C	 0.7029981118	-0.5389713114	-1.2857243182	 0.020203
C	 0.3654345281	 0.0111540647	-2.6163884684	-0.250341
N	 1.6349125536	 0.3829602132	-1.954558278	-0.322515
C	 0.6727058223	-0.4616441605	 1.2434271708	 0.033872
C	 1.9727224363	 0.3006280021	 1.6432297066	-0.239903
C	 1.5052521029	 0.226692533	 3.122011569	-0.207615
C	 0.0657273695	-0.0605915935	 2.6164733431	-0.246932
H	 0.2668239064	 1.7848785482	 0.3052208458	 0.282702
H	-1.0284074411	-0.650836729	-0.0380206112	 0.091666
H	 1.0717153681	-1.5622808903	-1.2325395938	 0.085345
H	 0.4741556686	-0.6032866137	-3.5053886757	 0.112452
H	-0.4191458647	 0.7605505023	-2.6581233074	 0.123052
H	 1.5064796296	 1.3117500181	-1.557186911	 0.21486
H	 0.8791109972	-1.5374882762	 1.2272332252	 0.07891
H	 2.9289271401	-0.1511319025	 1.3726213623	 0.112072
H	 1.9835220512	 1.3376206781	 1.2847622476	 0.08406
H	 1.9347535381	-0.6386097027	 3.6345850274	 0.106547
H	 1.6581660935	 1.1097018188	 3.7465889314	 0.09883
H	-0.5245199797	 0.856357876	 2.5276010776	 0.107785
H	-0.5284376929	-0.8077670184	 3.1479269819	 0.098111
66.6166	77.2905	115.6563	174.8428	228.2858	279.0544	301.4897	322.2473	366.8944	555.7178	630.4367	685.0829	741.6024	787.7286	794.0271	852.6747	888.4072	921.9662	934.9042	949.8885	962.0424	992.9101	995.8313	1020.0733	1060.2639	1107.4562	1127.5619	1143.3143	1156.6281	1193.52	1202.5037	1235.7232	1249.396	1254.1694	1262.7595	1270.5008	1276.9999	1286.8627	1302.0285	1334.8754	1385.3758	1398.8314	1424.3642	1478.5847	1487.6056	1501.01	1511.4242	3007.5673	3026.1577	3047.5632	3056.7361	3061.0136	3101.4076	3107.9212	3113.9584	3119.1722	3121.0282	3206.0821	3484.1628	3812.1493
OC(C1CN1)C1CCC1	O[C@@H]([C@H]1CN1)C1CCC1	
InChI=1S/C7H13NO/c9-7(6-4-8-6)5-2-1-3-5/h5-9H,1-4H2	InChI=1S/C7H13NO/c9-7(6-4-8-6)5-2-1-3-5/h5-9H,1-4H2/t6-,7-/m1/s1
