17
gdb 47223	2.26895	2.16819	1.29658	3.2554	75.79	-0.236	0.0025	0.2385	977.8195	0.138014	-417.985059	-417.977735	-417.976791	-418.016808	28.632	
N	 0.0587556968	 0.2010779652	 1.2720141735	-0.515196
C	-0.0495412415	-0.1106208943	 0.0498973854	 0.365985
O	 0.9830556983	-0.1496157131	-0.862622018	-0.250597
C	 1.6641047093	-1.4005463968	-0.8932095792	-0.150108
C	 0.8201187044	-2.5944804697	-1.2317854337	-0.062825
C	-0.5020049561	-2.672805728	-1.3926689012	-0.067605
C	-1.5096947188	-1.5882543279	-1.2910280255	-0.068105
C	-2.2177266116	-1.2916194094	 0.0100355274	-0.230342
N	-1.2721334457	-0.3572420968	-0.5610696592	-0.069125
H	 1.0289544819	 0.4300860363	 1.4842185929	 0.224315
H	 2.45650048	-1.2839930284	-1.6413090722	 0.131235
H	 2.1631945076	-1.5743296759	 0.0746935826	 0.114784
H	 1.4034371732	-3.5070507583	-1.3453001268	 0.100377
H	-0.9234830388	-3.6379875177	-1.6685444477	 0.102026
H	-2.0978551918	-1.4465144902	-2.1981652195	 0.110207
H	-3.259429915	-0.9845130118	-0.0009059128	 0.126251
H	-1.8936347722	-1.8308914632	 0.8957093039	 0.138723
97.368	178.1895	218.5991	289.6453	335.6995	438.9255	469.8467	515.7738	612.6691	712.6314	737.937	770.9417	810.6733	839.4569	881.9141	901.4744	952.968	977.9746	1006.0581	1036.8329	1047.5654	1078.5946	1107.0637	1126.4638	1130.319	1170.423	1244.5845	1265.999	1285.7532	1376.1535	1394.8206	1421.5691	1443.1709	1481.5745	1508.2827	1729.2238	1739.3625	2970.1635	3061.3341	3100.0311	3115.6371	3131.5316	3153.052	3209.3132	3503.4882
N=C1OCC=CC2CN12	[NH][C]1OCC=C[C@H]2CN12	
InChI=1S/C6H8N2O/c7-6-8-4-5(8)2-1-3-9-6/h1-2,5,7H,3-4H2	InChI=1S/C6H8N2O/c7-6-8-4-5(8)2-1-3-9-6/h1-2,5,7H,3-4H2/t5-,8?/m0/s1
