22
gdb 59130	3.98922	1.08316	0.99172	1.7671	86.48	-0.2282	0.0728	0.301	1305.5719	0.194063	-367.117925	-367.109384	-367.10844	-367.151118	33.39	
C	 0.028825889	 1.5335636509	-0.0872720761	-0.388106
C	 0.0943821141	 0.0153540417	 0.1350894017	-0.002283
C	 0.7781671456	-0.3190406974	 1.4690009204	-0.388103
C	-1.2990252468	-0.6026209838	 0.0703532266	 0.026981
C	-2.0156920637	-0.7691880939	-1.2791697041	-0.030972
C	-1.2248155058	-2.0509693698	-1.6891141999	-0.073624
C	-2.5472818664	-2.772988779	-1.9118185505	-0.185321
N	-2.9073587914	-1.9073085139	-0.7082053306	-0.166723
C	-1.4717196395	-2.1140995994	-0.1491270249	-0.030974
H	 1.0285817944	 1.9795377004	-0.0630537652	 0.110385
H	-0.4246164743	 1.7798068158	-1.0528112958	 0.113147
H	-0.5694231676	 2.0170690304	 0.6941519294	 0.114547
H	 0.6997227337	-0.4187305785	-0.6731253594	 0.069852
H	 0.8617491056	-1.4003102452	 1.6186017618	 0.113147
H	 1.7870901537	 0.1042652435	 1.512343347	 0.110385
H	 0.2097637333	 0.0905214249	 2.3124929256	 0.114547
H	-1.9524120295	-0.2050158296	 0.8580795912	 0.074921
H	-2.4510959809	-0.019549948	-1.9439293636	 0.077917
H	-0.2760305285	-2.1225911642	-2.2310740146	 0.065843
H	-3.1252448756	-2.5318773182	-2.8105263051	 0.098258
H	-2.5930451601	-3.8476793245	-1.7049428664	 0.098258
H	-1.2648931795	-2.9522960623	 0.5202666325	 0.077918
68.7062	154.4016	155.1828	212.8849	238.5485	303.8465	363.6127	420.5006	497.8253	503.0168	712.7115	793.7767	802.1124	846.8759	852.1981	883.7766	907.5342	914.1488	931.092	932.1825	970.4306	1007.0252	1027.598	1034.3129	1061.0732	1105.8824	1129.9994	1130.5005	1150.1259	1170.6881	1187.5342	1196.7842	1202.7682	1233.6743	1257.3446	1275.0593	1311.54	1321.0242	1351.2906	1400.4854	1412.2042	1425.0487	1486.5774	1491.0854	1504.0158	1509.6798	1519.4527	3003.6679	3024.224	3026.2254	3029.6756	3032.9399	3046.8036	3084.3287	3089.4214	3089.823	3091.9161	3095.6415	3099.3164	3101.54
CC(C)C1C2C3CN2C13	CC(C)[C@H]1[C@H]2[C@@H]3CN2[C@H]13	
InChI=1S/C8H13N/c1-4(2)6-7-5-3-9(7)8(5)6/h4-8H,3H2,1-2H3	InChI=1S/C8H13N/c1-4(2)6-7-5-3-9(7)8(5)6/h4-8H,3H2,1-2H3/t5-,6-,7+,8-
