20
gdb 112183	2.43927	1.23498	1.02549	4.3163	75.38	-0.2553	0.0124	0.2677	1276.1261	0.16947	-440.315827	-440.305824	-440.30488	-440.350703	36.304	
C	 0.1274921454	 1.6487464745	 0.0135607361	-0.386298
C	-0.2559336411	 0.1795581896	-0.1969763262	-0.206855
C	 0.6607481305	-0.5176360391	-1.1797390943	 0.163032
O	 2.0390531431	-0.6396181437	-0.6488578388	-0.26648
C	 2.058219691	-1.9843992809	-0.858360171	 0.467864
O	 2.9491365892	-2.7519166491	-0.6705882513	-0.344157
C	 0.6194564973	-2.0620315033	-1.3961385883	 0.0379
C	-0.3350821393	-2.8817129009	-0.5277296416	-0.458019
N	 0.6325444956	-2.4415810284	-2.8069986184	-0.556084
H	 1.1504729039	 1.7295437771	 0.3914871427	 0.142287
H	 0.0704176781	 2.2107434042	-0.9247671288	 0.119583
H	-0.541344258	 2.1282337824	 0.733800162	 0.116997
H	-0.2377325818	-0.3493308982	 0.7619422037	 0.108232
H	-1.2824168644	 0.108451038	-0.5798723562	 0.104885
H	 0.7053585621	 0.0090009493	-2.1367601965	 0.100735
H	-0.3029297291	-2.5963239003	 0.5273332159	 0.129866
H	-1.366504682	-2.7658829297	-0.8798340435	 0.118627
H	-0.0670060871	-3.9402772124	-0.5956927001	 0.134018
H	 1.1574002733	-3.3059687961	-2.9127588391	 0.24507
H	-0.3128378066	-2.637262753	-3.1260301863	 0.228798
80.7016	91.9622	159.2551	165.3725	196.4458	221.36	239.3068	279.5229	314.2519	341.8191	413.3455	480.0843	612.2118	673.7799	738.2444	748.4917	809.3955	852.1469	881.9698	893.5604	967.6004	983.5697	1045.6575	1070.2273	1092.2937	1144.2944	1158.2297	1192.6974	1246.7664	1287.1208	1299.3265	1326.783	1361.7514	1406.3128	1409.1267	1414.0231	1472.1582	1487.8019	1497.3297	1499.436	1508.3329	1650.3207	1929.1035	3027.2259	3033.5029	3040.1114	3067.4867	3086.6275	3103.3852	3109.7775	3118.2897	3121.9661	3478.8891	3557.9746
CCC1OC(=O)C1(C)N	CC[C@H]1OC(=O)[C@]1(C)N	
InChI=1S/C6H11NO2/c1-3-4-6(2,7)5(8)9-4/h4H,3,7H2,1-2H3	InChI=1S/C6H11NO2/c1-3-4-6(2,7)5(8)9-4/h4H,3,7H2,1-2H3/t4-,6-/m1/s1
