17
gdb 57742	7.60153	0.46495	0.44673	1.6877	119.23	-0.2306	-0.0444	0.1862	2397.996	0.133053	-347.495128	-347.484972	-347.484028	-347.530747	36.242	
C	-0.0160263722	 1.5560455523	 0.0359203185	-0.377332
C	-0.0243359705	 0.013835675	-0.025681554	-0.175869
C	-1.4608103891	-0.5471563938	 0.0383324624	-0.377335
C	 0.6727749726	-0.4663977026	-1.2129697958	 0.325538
C	 1.2494531904	-0.8636351457	-2.2045401955	-0.497363
C	 1.8870000251	-1.3028808184	-3.3121124972	 0.602569
C	 2.4619138682	-1.6989397618	-4.3110506495	-0.037135
C	 3.1001500766	-2.1386624637	-5.4200433767	 0.177589
C	 3.6704744544	-2.5317531202	-6.4120190759	-0.707321
H	 1.0045071243	 1.9462524563	 0.0160606016	 0.130483
H	-0.5595193358	 1.9781468342	-0.8144716528	 0.130291
H	-0.5000272437	 1.8946150546	 0.9571614396	 0.118533
H	 0.5226964259	-0.3609390419	 0.8514334477	 0.117051
H	-2.0507220131	-0.1926247731	-0.8119804867	 0.130291
H	-1.4588964584	-1.6397730301	 0.0201764968	 0.130483
H	-1.9495033274	-0.2154204256	 0.9595826198	 0.118533
H	 4.1716028127	-2.8770134656	-7.2819711724	 0.190993
55.1912	60.6088	138.8708	157.4309	224.1667	250.5008	264.0432	278.4192	336.6238	450.9354	462.3613	479.4565	512.6348	547.7137	574.1533	587.9301	672.3228	678.3756	816.5901	932.4579	935.884	964.8013	1109.157	1114.4612	1179.9037	1296.758	1314.6795	1358.1726	1395.6904	1418.0023	1485.6161	1488.1477	1498.5968	1509.6931	2152.5546	2293.5152	2336.4654	3002.5883	3040.0876	3043.2738	3112.9479	3117.89	3124.2686	3125.956	3503.7658
CC(C)C#CC#CC#C	CC(C)C#CC#CC#C	
InChI=1S/C9H8/c1-4-5-6-7-8-9(2)3/h1,9H,2-3H3	InChI=1S/C9H8/c1-4-5-6-7-8-9(2)3/h1,9H,2-3H3
