17
gdb 27756	2.13774	1.92233	1.03188	2.3799	77.15	-0.1891	0.063	0.2521	1133.079	0.137412	-418.020362	-418.012155	-418.011211	-418.053568	30.248	
C	-0.0940878996	 1.5014637409	 0.0650789153	-0.489462
C	 0.0319281264	 0.0167758024	-0.0081413336	 0.10031
C	 0.1379229743	-0.8250156547	-1.0799959377	 0.260899
C	 0.2274611412	-1.3079012845	-2.5240437884	-0.385805
C	 0.3277601403	-2.7556401583	-1.9044441	-0.168106
N	 0.2277858667	-2.1069542794	-0.5793133776	-0.065446
C	 0.1760768464	-2.0218537361	 0.7664320357	 0.399628
O	 0.2399524474	-3.1056268146	 1.5603448499	-0.428502
N	 0.058862256	-0.7704871382	 1.1484177024	-0.423954
H	 0.7345704505	 1.9446631788	 0.6289245507	 0.128896
H	-0.0973915437	 1.9413343066	-0.9360877608	 0.1123
H	-1.0199692438	 1.7986117306	 0.5705087943	 0.128907
H	-0.6580070079	-1.1453943497	-3.1437188092	 0.125983
H	 1.1135359682	-0.9970045749	-3.0832380703	 0.125992
H	-0.5068242582	-3.4243039	-2.1270895363	 0.133594
H	 1.2751770968	-3.2747703138	-2.0660074006	 0.133626
H	 0.1817851188	-2.7741171752	 2.4652486461	 0.31114
61.1157	118.0111	191.9404	228.8807	253.1719	295.7885	381.0956	408.8804	599.6321	612.8589	649.7212	688.1947	694.4302	715.9318	802.0871	902.4	946.5395	993.7477	1052.246	1062.8967	1139.3292	1151.0889	1184.0363	1185.8555	1219.4003	1269.3757	1281.0555	1299.3095	1365.0712	1417.8672	1476.1487	1485.6481	1493.9248	1508.1107	1539.9847	1596.9125	1656.7973	3028.5231	3062.4168	3069.1316	3079.0268	3104.9078	3112.01	3126.5855	3804.9318
CC1=C2CCN2C(O)=N1	Cc1c2CCn2c(O)n1	
InChI=1S/C6H8N2O/c1-4-5-2-3-8(5)6(9)7-4/h2-3H2,1H3,(H,7,9)	InChI=1S/C6H8N2O/c1-4-5-2-3-8(5)6(9)7-4/h2-3H2,1H3,(H,7,9)
