19
gdb 75196	2.57753	1.67345	1.18967	2.2128	76.75	-0.2268	0.0218	0.2486	1086.65	0.158739	-419.220754	-419.211811	-419.210867	-419.253593	34.544	
C	-0.1214496367	 1.5064737199	-0.0072895121	-0.490415
C	 0.1544414396	 0.0298774561	-0.0003396132	 0.33904
C	 0.4687843869	-0.7281676329	-1.2899070977	-0.221252
N	 1.2161133173	-1.9347212532	-0.9164159588	-0.309704
C	 1.4253288566	-1.9060845941	 0.346538634	 0.342482
N	 2.2110561525	-2.8181972711	 1.0126964543	-0.575943
C	 0.8048588118	-0.7393400372	 1.0813873528	 0.239982
C	 1.3278582178	-0.2385990845	 2.396257192	-0.503231
O	-0.6304763173	-0.7719581264	 0.9032533561	-0.330716
H	 0.7068442451	 2.0541596976	-0.4683256636	 0.125761
H	-1.0277641618	 1.7214355419	-0.584133574	 0.133163
H	-0.2742857638	 1.8856242507	 1.0060096272	 0.128314
H	-0.4487759269	-1.0024451724	-1.8244754656	 0.114642
H	 1.0680375269	-0.1102139291	-1.9721792893	 0.102554
H	 2.4420350503	-3.6342293125	 0.462340731	 0.257196
H	 1.9413032155	-3.0341546894	 1.9607676735	 0.253012
H	 2.4053684946	-0.0560859421	 2.3412436513	 0.13671
H	 0.826156416	 0.687136632	 2.6868266909	 0.134616
H	 1.1505581657	-0.9705222131	 3.1931701013	 0.12379
139.6582	169.5162	173.4129	232.5398	259.4743	269.2562	294.4529	365.5818	427.0903	461.4756	487.8172	535.6137	608.5808	659.1771	681.487	726.4493	780.3457	833.3945	889.7704	948.3681	973.66	995.9391	1076.241	1106.9118	1130.8884	1173.757	1200.748	1216.6427	1228.0952	1338.4081	1407.4223	1413.6845	1418.625	1451.0218	1474.9794	1476.1946	1487.4808	1494.6728	1506.9298	1626.4947	1717.8023	3016.6242	3033.7536	3037.7516	3055.5511	3095.8904	3099.1787	3122.9024	3129.115	3558.6767	3668.83
CC12CN=C(N)C1(C)O2	C[C@@]12CN=C(N)[C@]1(C)O2	
InChI=1S/C6H10N2O/c1-5-3-8-4(7)6(5,2)9-5/h3H2,1-2H3,(H2,7,8)	InChI=1S/C6H10N2O/c1-5-3-8-4(7)6(5,2)9-5/h3H2,1-2H3,(H2,7,8)/t5-,6+/m1/s1
