19
gdb 119554	3.03897	1.05187	0.86436	2.7055	76.52	-0.2418	-0.01	0.2317	1354.7726	0.158347	-423.014972	-423.00593	-423.004985	-423.049419	33.297	
O	 0.0745545858	 1.4644675673	-0.2760184805	-0.417349
C	 0.0258974643	 0.0476389436	-0.2505952248	-0.063839
C	-1.3612466367	-0.4831703044	 0.1420924004	-0.339442
C	-1.4138922212	-1.9859534317	 0.1388411737	 0.247383
C	-1.6417992956	-2.8157767508	-1.1243603149	-0.319182
C	-2.5798315893	-3.0153301605	 0.0105883129	-0.121975
C	-1.9311424086	-3.9516131335	 1.0411591421	-0.354021
C	-0.8250149748	-2.8736348883	 1.1945782011	 0.360521
O	 0.0377474385	-2.6970717408	 2.0109104987	-0.3227
H	 0.0128900067	 1.7768340349	 0.6321583832	 0.283414
H	 0.2725864683	-0.2793320595	-1.2664616627	 0.111243
H	 0.7828862168	-0.375740271	 0.4245156508	 0.117605
H	-1.6109575956	-0.1116457788	 1.1452863417	 0.09924
H	-2.1074009128	-0.0718868932	-0.547463943	 0.108338
H	-2.007148095	-2.2267911119	-1.9603406782	 0.127501
H	-0.9479796071	-3.603316127	-1.4073166148	 0.121335
H	-3.6341579327	-2.7781323911	-0.0421662997	 0.108686
H	-2.4839256789	-4.054148534	 1.9792927753	 0.132376
H	-1.636536712	-4.9441033595	 0.6873997989	 0.120865
62.0249	91.6379	112.3007	154.4453	252.384	294.1261	333.3817	361.1139	417.6262	496.0737	562.9792	664.4231	728.8272	775.7884	810.1776	843.8516	886.1103	942.7091	976.8119	988.0984	1017.5817	1030.8915	1052.7969	1070.9072	1085.9537	1101.4914	1136.0023	1181.0249	1214.6122	1245.6783	1289.2203	1309.7413	1331.764	1378.6926	1403.9068	1415.4504	1458.6802	1480.011	1498.2546	1513.9626	1865.8033	3009.4272	3015.766	3055.7693	3060.3575	3082.9017	3110.7981	3111.6215	3195.8635	3208.6982	3817.938
OCCC12CC1CC2=O	OCC[C@]12C[C@H]1CC2=O	
InChI=1S/C7H10O2/c8-2-1-7-4-5(7)3-6(7)9/h5,8H,1-4H2	InChI=1S/C7H10O2/c8-2-1-7-4-5(7)3-6(7)9/h5,8H,1-4H2/t5-,7+/m1/s1
