17
gdb 114510	2.76105	1.34548	1.08511	2.6689	68.42	-0.2534	-0.036	0.2174	1124.1388	0.135027	-458.936856	-458.928708	-458.927763	-458.970193	30.405	
O	-0.0597161265	 1.3481135657	-0.4095370215	-0.417418
C	 0.0638953955	-0.0315390342	-0.1250167584	-0.079569
C	-1.2984541908	-0.6208678011	 0.1916896558	 0.112987
O	-2.2104618223	-0.4764853993	-0.9332513991	-0.322679
C	-2.5580828907	-1.8753948789	-0.8982752539	 0.119385
C	-1.7486877485	-2.7194843536	-1.9106305716	-0.365264
C	-0.6950743523	-2.9436484604	-0.8016857417	 0.409412
O	 0.329116397	-3.5570491375	-0.743114596	-0.294915
C	-1.5198670284	-2.1553793507	 0.2347639634	-0.250511
H	-0.7006858916	 1.4224069529	-1.1267185246	 0.295382
H	 0.5271236152	-0.5781684261	-0.9603103213	 0.09716
H	 0.725616135	-0.1258261458	 0.7428181041	 0.119984
H	-1.7202948369	-0.1189721998	 1.0713798074	 0.097853
H	-3.6325710617	-2.0436952622	-0.8161403802	 0.094493
H	-2.2340928785	-3.6621514115	-2.1885063113	 0.137689
H	-1.4188020782	-2.2044175672	-2.8156825988	 0.140348
H	-1.7116143762	-2.6200101402	 1.2004890677	 0.105663
75.0387	96.7748	116.0922	219.9742	365.1826	392.0694	425.4044	435.7585	478.4061	545.8143	621.2946	711.0054	803.5001	842.1984	866.6623	941.3549	951.2425	969.5834	1021.0433	1042.7379	1059.9629	1083.6767	1104.7891	1134.5558	1152.7892	1200.8083	1214.2966	1224.6147	1247.6669	1305.6	1313.2344	1355.655	1404.8057	1416.3806	1435.8955	1492.3691	1891.4786	2992.9303	3030.5517	3051.9175	3078.969	3105.9682	3121.9032	3134.8391	3793.1446
OCC1OC2CC(=O)C12	OC[C@H]1O[C@H]2CC(=O)[C@@H]12	
InChI=1S/C6H8O3/c7-2-5-6-3(8)1-4(6)9-5/h4-7H,1-2H2	InChI=1S/C6H8O3/c7-2-5-6-3(8)1-4(6)9-5/h4-7H,1-2H2/t4-,5+,6+/m0/s1
