21
gdb 117407	5.98952	0.54422	0.50659	2.306	86.2	-0.2452	-0.014	0.2311	2176.4147	0.178451	-387.088724	-387.077611	-387.076666	-387.127024	38.538	
C	 0.0139958096	 1.6160779735	-0.0544270296	-0.387172
C	-0.0047764477	 0.0872577025	 0.0136132896	-0.159243
C	 0.6781577886	-0.5639404786	-1.1891923642	-0.280076
C	 0.6772487479	-2.0861769025	-1.1544736267	 0.36341
O	 0.1721312357	-2.7109231308	-0.2486102965	-0.297213
C	 1.3500831933	-2.7868977366	-2.3291423819	-0.292788
C	 1.2979223592	-4.3190659368	-2.2182126345	-0.357147
C	 1.9452129914	-4.9786679671	-3.3449498653	 0.285075
C	 2.485147616	-5.499370937	-4.2842901508	-0.4305
H	 1.0391298646	 2.0024786384	-0.0846803949	 0.11309
H	-0.5021072111	 1.9829262124	-0.9489562359	 0.113101
H	-0.4803167856	 2.0556937446	 0.8171187624	 0.116749
H	 0.4854438712	-0.2569195115	 0.9304985132	 0.112661
H	-1.0358896212	-0.2762980342	 0.0771077256	 0.112834
H	 0.2028347288	-0.2474427699	-2.1291701415	 0.119121
H	 1.7218190763	-0.2283835991	-1.2773509056	 0.118932
H	 0.8745973513	-2.4518265389	-3.2595827116	 0.132826
H	 2.3894649759	-2.4414474782	-2.3967626753	 0.133085
H	 1.7669907607	-4.6283856786	-1.2777294323	 0.145332
H	 0.2531132771	-4.6396039318	-2.1413239218	 0.145061
H	 2.958503908	-5.9753042596	-5.1066784425	 0.192861
27.5838	50.8842	67.6928	83.9269	103.524	174.6552	244.4146	252.7652	320.2634	343.5986	378.0024	471.9907	512.2755	618.7186	639.875	682.0094	698.844	763.0906	857.8569	863.8578	905.4373	964.0841	985.8787	1021.7979	1051.0848	1083.4856	1104.2626	1141.3084	1186.2543	1253.0548	1286.2546	1302.9181	1324.7673	1327.4517	1381.1631	1395.6804	1416.1896	1445.0121	1457.2334	1469.4682	1487.2461	1501.007	1508.0886	1802.2582	2239.784	3007.0673	3028.4222	3032.2086	3033.9692	3048.513	3050.2757	3061.0645	3075.5322	3083.8861	3100.4392	3104.2321	3508.3831
CCCC(=O)CCC#C	CCCC(=O)CCC#C	
InChI=1S/C8H12O/c1-3-5-7-8(9)6-4-2/h1H,4-7H2,2H3	InChI=1S/C8H12O/c1-3-5-7-8(9)6-4-2/h1H,4-7H2,2H3
