23
gdb 94459	2.63686	1.32228	1.1435	1.5728	84.69	-0.2439	0.0787	0.3226	1209.5084	0.207079	-388.289021	-388.280171	-388.279227	-388.323036	34.196	
C	-0.6870527044	 1.1805752477	-0.0493656328	-0.425375
C	 0.1747391423	-0.0708569604	-0.1197982644	 0.004377
C	 1.6086586694	 0.0073099114	-0.7057016689	-0.234995
C	 2.039514458	-1.0704999108	 0.3202483261	-0.278889
C	 0.7750538912	-0.7387636758	 1.1690248269	 0.320887
C	 1.0432223034	 0.1856934598	 2.3817632243	-0.284419
C	 0.0093250239	-0.2839435763	 3.409986214	-0.082817
O	-0.0785853905	-1.6853328216	 3.2087293166	-0.245328
C	-0.0440357949	-1.8894423118	 1.802855712	-0.153251
H	-0.1605599273	 2.0159344082	 0.4238151664	 0.114928
H	-0.9729025706	 1.5064893831	-1.0557754336	 0.116424
H	-1.6111755736	 1.0038632581	 0.5131933447	 0.115695
H	-0.3802755437	-0.8508786839	-0.6576135299	 0.069875
H	 1.73721083	-0.2124299964	-1.7684051696	 0.093493
H	 2.0737524459	 0.9755684771	-0.4928902138	 0.098191
H	 1.9887382191	-2.0785187947	-0.1036463619	 0.097107
H	 3.0095449876	-0.9488661999	 0.8100791036	 0.094613
H	 2.0503325832	 0.0008961176	 2.7700887122	 0.103705
H	 0.9649971378	 1.2513359028	 2.1546423175	 0.098353
H	 0.299535789	-0.1081036195	 4.4492673623	 0.106015
H	-0.9673260298	 0.2002681782	 3.2365692026	 0.084869
H	-1.0684269428	-1.887285635	 1.3924147954	 0.083428
H	 0.3909696767	-2.8770740479	 1.6188314805	 0.103112
37.0723	107.9769	199.3911	210.315	245.8994	279.7025	333.8624	403.8942	443.4411	489.5594	629.5251	651.8915	756.3681	776.2286	864.6945	879.8994	897.685	916.3099	945.5221	958.2431	966.7938	980.4624	1028.4828	1076.9261	1084.1549	1112.6646	1154.4105	1159.5456	1180.5276	1194.2091	1220.5558	1240.1626	1249.7769	1266.4953	1270.8485	1274.5352	1307.1076	1323.6255	1362.0511	1378.1867	1405.6167	1409.7323	1480.1951	1483.7474	1492.5895	1500.7007	1503.1239	1506.0862	1519.9895	2950.2313	2957.8354	3013.3714	3024.6511	3044.2018	3048.303	3050.2034	3067.7638	3088.1012	3090.9293	3091.8402	3093.3279	3107.1489	3108.3676
CC1CCC11CCOC1	C[C@H]1CC[C@]21CCOC2	
InChI=1S/C8H14O/c1-7-2-3-8(7)4-5-9-6-8/h7H,2-6H2,1H3	InChI=1S/C8H14O/c1-7-2-3-8(7)4-5-9-6-8/h7H,2-6H2,1H3/t7-,8-/m0/s1
