12
gdb 131420	3.24942	1.4918	1.02241	3.5924	60.86	-0.2785	-0.0689	0.2095	1037.3786	0.078585	-505.959311	-505.952145	-505.951201	-505.991206	26.823	
O	-0.1327650257	 1.3250058639	 0.211602496	-0.396949
C	-0.014164135	 0.0011772394	 0.0362072368	 0.389361
N	 1.1505835399	-0.5131984713	-0.0758330998	-0.174041
O	 1.237263201	-1.9025351069	-0.2585884445	-0.263625
C	 0.1320676484	-2.7170362117	-0.3209945868	 0.527425
O	 0.2734161639	-3.8947200737	-0.476991303	-0.353725
N	-1.0849978808	-2.0874499307	-0.1912673652	-0.424306
C	-1.2951398502	-0.7320636629	-0.0079383966	 0.343524
N	-2.4652086988	-0.2530065761	 0.1000442922	-0.509951
H	 0.7579208391	 1.7053850105	 0.2256520462	 0.322212
H	-1.8993575491	-2.6851270792	-0.2359616146	 0.287894
H	-2.4240064125	 0.7565795387	 0.2286941092	 0.252181
99.5745	128.2925	320.5573	328.2994	394.2914	398.4318	464.9625	528.8092	547.8666	616.9533	658.0949	710.4112	747.5509	771.6276	818.0474	879.2963	920.6714	996.2241	1144.4914	1234.2745	1284.0369	1381.7471	1420.019	1500.0291	1681.6966	1744.6687	1882.1761	3519.3769	3612.2195	3759.9851
OC1=NOC(=O)NC1=N	OC1=NOC(=O)N[C]1[NH]	
InChI=1S/C3H3N3O3/c4-1-2(7)6-9-3(8)5-1/h(H,6,7)(H2,4,5,8)	InChI=1S/C3H3N3O3/c4-1-2(7)6-9-3(8)5-1/h(H,6,7)(H2,4,5,8)
