16
gdb 11407	4.08283	1.57289	1.24576	2.3269	62.43	-0.2251	0.058	0.2831	976.2756	0.131562	-417.0787	-417.070888	-417.069944	-417.111031	28.445	
C	 0.0653632646	 1.4246761341	 0.0436339831	-0.243438
O	 0.0251075175	 0.0079189417	 0.0019030404	-0.225037
C	 0.5558387722	-0.5426022514	-1.1551125192	 0.185346
C	 0.5022345279	-2.0831318807	-1.0687855611	-0.199509
N	-0.579267112	-2.4822792151	-1.9686658495	-0.343667
C	-0.9155779994	-1.4231991031	-2.5904120083	 0.464203
N	-1.8286110211	-1.3161280016	-3.6045106957	-0.5804
O	-0.2771875736	-0.2484099671	-2.3001007777	-0.259136
H	 1.0942364502	 1.7969126202	-0.0715224928	 0.109989
H	-0.5591133718	 1.8678366562	-0.7408615355	 0.124533
H	-0.3150663582	 1.7249476835	 1.0219096744	 0.132122
H	 1.5407099308	-0.1101271071	-1.3755140083	 0.07691
H	 1.4527854008	-2.5365972914	-1.3746997462	 0.10733
H	 0.2995807099	-2.3840811929	-0.0366486492	 0.122068
H	-2.4523757024	-2.1055260464	-3.6718341374	 0.267707
H	-2.2773965052	-0.4166129288	-3.6839686468	 0.260979
83.1937	129.8897	183.441	220.1852	284.0808	362.1683	409.3615	439.3426	536.1715	569.0452	703.7915	746.2989	805.8283	858.0881	940.9237	971.7573	1004.0449	1021.3562	1079.6509	1146.9433	1175.9638	1181.4732	1199.5963	1247.9558	1305.9371	1343.6383	1391.4277	1433.7674	1480.8869	1485.5501	1494.5983	1511.3179	1618.6361	1766.3488	2995.2837	3019.0668	3035.2559	3065.9559	3084.9802	3129.3973	3586.8653	3699.5097
COC1CN=C(N)O1	CO[C@H]1C[N][C](N)O1	
InChI=1S/C4H8N2O2/c1-7-3-2-6-4(5)8-3/h3H,2H2,1H3,(H2,5,6)	InChI=1S/C4H8N2O2/c1-7-3-2-6-4(5)8-3/h3H,2H2,1H3,(H2,5,6)/t3-/m1/s1
