17
gdb 35483	3.25643	1.52486	1.46569	1.8061	76.03	-0.2466	0.0389	0.2856	959.9872	0.13688	-384.620365	-384.613341	-384.612397	-384.65168	28.61	
C	-0.1339596498	-1.2543896973	-0.2245912813	-0.470972
C	-0.07216807	-0.0633515921	-0.0747855993	 0.361002
C	-0.0005647759	 1.3923639335	 0.0637772774	-0.115925
O	-0.6222660122	 1.8501770241	 1.2785971343	-0.259828
C	 0.4177023625	 2.3201008999	 2.1281819042	 0.084327
C	 1.4296639269	 1.1882845129	 2.4985307911	-0.252032
C	 2.2913701447	 1.6616960606	 1.3253760699	-0.078048
C	 1.4978017318	 2.9609152781	 1.2206382435	-0.103652
C	 1.4250952105	 1.9571410523	 0.1142943702	-0.051591
H	-0.190150546	-2.3076635034	-0.3482719924	 0.197358
H	-0.5483763506	 1.8465481825	-0.7727259844	 0.108211
H	-0.0357233707	 2.8921863675	 2.9358677579	 0.085077
H	 1.9196466316	 1.3912584505	 3.4551466911	 0.100683
H	 1.0402712851	 0.1670022746	 2.4900622671	 0.113975
H	 3.3590440637	 1.515165742	 1.2130325634	 0.088149
H	 1.7981661889	 3.9958718632	 1.1324860278	 0.092305
H	 1.9340098094	 2.1458173712	-0.8228036406	 0.100964
109.3627	146.9094	270.9682	371.2068	430.3413	507.8964	555.1255	617.6902	660.0208	665.1334	698.1397	763.0967	797.8154	834.042	853.7683	894.8251	907.5077	956.6524	984.721	991.3574	1012.7086	1014.9978	1058.178	1066.6906	1111.3688	1119.2537	1156.937	1203.4541	1227.2248	1280.3853	1286.1538	1314.4253	1338.49	1359.0721	1392.8472	1488.7298	2233.5753	3013.0094	3054.5921	3110.5691	3134.0872	3181.1118	3195.2217	3211.1423	3502.7266
C#CC1OC2CC3C2C13	C#C[C@H]1O[C@H]2C[C@@H]3[C@H]2[C@H]13	
InChI=1S/C8H8O/c1-2-5-7-4-3-6(9-5)8(4)7/h1,4-8H,3H2	InChI=1S/C8H8O/c1-2-5-7-4-3-6(9-5)8(4)7/h1,4-8H,3H2/t4-,5+,6-,7-,8+/m0/s1
