21
gdb 111800	2.89407	1.35689	1.30384	1.4424	81.63	-0.2319	0.0248	0.2567	1097.9135	0.185545	-387.092022	-387.084205	-387.083261	-387.124228	31.71	
O	-0.1335504719	 1.4761007104	-0.2317223018	-0.423821
C	 0.0223446131	 0.0844426329	 0.0253045783	-0.124665
C	-1.3594944798	-0.5450839396	-0.0531656834	 0.056557
C	-2.0689691131	-0.544356586	-1.4355276719	-0.05488
C	-1.1434959305	-1.50134504	-2.2623731767	-0.209685
C	-0.7239977185	-2.5737113362	-1.2114004903	-0.206205
C	-1.454650382	-2.0872012871	 0.0896567565	-0.085136
C	-2.9391856748	-2.2772848414	-0.1821681434	-0.081752
C	-3.3022170201	-1.3632124828	-1.0882540514	-0.082379
H	 0.7345587846	 1.887539492	-0.1917439384	 0.285513
H	 0.7199718259	-0.3684391989	-0.6932036376	 0.085257
H	 0.4374601227	-0.0887126531	 1.0321259719	 0.08272
H	-1.9921160238	-0.0516061885	 0.6910052696	 0.07713
H	-2.2400441445	 0.4282937046	-1.894650126	 0.069039
H	-1.6725772479	-1.9299673077	-3.116383072	 0.095079
H	-0.2764385746	-0.9612963835	-2.6543695679	 0.097082
H	-1.0371048697	-3.5831664122	-1.4872773845	 0.095869
H	 0.3608428771	-2.5970910696	-1.0699928379	 0.092376
H	-1.0723052586	-2.5274028033	 1.0122441553	 0.05332
H	-3.5367362465	-3.0885138533	 0.2154282124	 0.089294
H	-4.261941807	-1.2699367467	-1.5818621608	 0.089289
79.0642	177.7977	240.9152	284.1555	288.4344	361.3031	419.3718	503.4812	551.008	685.9154	720.6014	756.9729	803.8509	829.6568	841.6138	880.702	887.3327	926.4272	953.5	957.8929	974.7748	1011.1581	1052.7388	1062.4198	1070.0188	1100.0867	1119.682	1145.3999	1166.4042	1190.251	1223.0175	1242.4978	1250.706	1274.8953	1289.8114	1295.6311	1307.2312	1332.6927	1352.7093	1384.564	1461.5047	1491.9489	1508.2618	1526.6699	1642.3081	2964.1066	3009.0818	3049.7033	3061.4508	3066.9114	3092.447	3097.9366	3109.5865	3127.3056	3191.386	3217.311	3830.3763
OCC1C2CCC1C=C2	OC[C@H]1[C@H]2CC[C@@H]1C=C2	
InChI=1S/C8H12O/c9-5-8-6-1-2-7(8)4-3-6/h1-2,6-9H,3-5H2	InChI=1S/C8H12O/c9-5-8-6-1-2-7(8)4-3-6/h1-2,6-9H,3-5H2/t6-,7+,8+
