18
gdb 8159	3.95338	1.7845	1.48665	1.074	67.83	-0.2391	0.094	0.3331	914.2321	0.152628	-384.9328	-384.92503	-384.924086	-384.964489	29.815	
C	 0.179287639	 1.5170626671	 0.0186221653	-0.405062
C	 0.092418623	 0.0102894393	-0.0227355715	 0.224452
O	 0.8481554964	-0.5062690323	-1.1144290267	-0.271712
C	 1.2671963451	-1.7872838593	-0.7098144307	 0.019609
C	 2.5112269383	-1.828065195	 0.1554638565	-0.356501
C	 1.1296422953	-1.8422679627	 0.7788182974	 0.401025
C	 0.5918431619	-2.9816988409	 1.5963105688	-0.466608
O	 0.6582157093	-0.5579024641	 1.1516137115	-0.306582
H	 1.2231658461	 1.8240951642	 0.1164713621	 0.130648
H	-0.2353937091	 1.9389038186	-0.9003668891	 0.129114
H	-0.389473441	 1.8992741231	 0.870039897	 0.128735
H	-0.9548351587	-0.3300553525	-0.1204774885	 0.064494
H	 1.0059309661	-2.5980344407	-1.3822854812	 0.100832
H	 3.0837524056	-2.7506108369	 0.1698606464	 0.110291
H	 3.0846633112	-0.9120961351	 0.2347443992	 0.123012
H	 0.9593743881	-3.9382060508	 1.2131201573	 0.118897
H	 0.9101676664	-2.8914973399	 2.6401596856	 0.131392
H	-0.5026540931	-2.9969030824	 1.5738696106	 0.123963
112.8903	197.2646	201.7917	224.0142	265.0715	365.527	386.6102	464.9092	507.2383	615.1586	693.0103	775.4546	823.9463	845.6529	873.5155	902.1167	959.6903	975.6158	1025.0305	1038.2721	1084.3407	1112.8419	1118.7406	1132.1316	1145.5524	1164.4821	1245.217	1283.9318	1361.7831	1391.8527	1394.8959	1422.48	1435.2443	1469.5737	1480.2782	1485.0229	1485.8392	1500.0134	2933.2839	3034.3287	3055.1314	3100.8092	3112.472	3128.5709	3134.4074	3140.2692	3159.0345	3230.8204
CC1OC2CC2(C)O1	C[C@H]1O[C@H]2C[C@@]2(C)O1	
InChI=1S/C6H10O2/c1-4-7-5-3-6(5,2)8-4/h4-5H,3H2,1-2H3	InChI=1S/C6H10O2/c1-4-7-5-3-6(5,2)8-4/h4-5H,3H2,1-2H3/t4-,5-,6+/m0/s1
