17
gdb 67945	2.54745	1.73323	1.28515	2.3519	72.98	-0.2248	-0.029	0.1958	1004.9239	0.135996	-418.027412	-418.019435	-418.018491	-418.059911	30.619	
C	-0.160602965	 1.4978358474	 0.2029027834	-0.455798
C	 0.0895775793	 0.0153710261	-0.0084087437	 0.32159
C	-1.1589075265	-0.9135478357	 0.1680007656	-0.388067
C	-0.4738406338	-1.5671773983	 1.380032609	 0.421949
O	-0.8380046351	-2.3210286033	 2.2333622423	-0.295189
C	 0.8478584944	-0.7959769734	 1.1335950663	-0.195912
N	 1.8158915858	-1.5451424749	 0.3447989222	-0.2905
C	 1.7525407618	-1.0832769928	-0.9569426462	 0.053278
N	 0.8321054924	-0.2459675975	-1.2486934645	-0.285393
H	 0.7838496578	 2.0494667951	 0.2277508737	 0.122082
H	-0.762634281	 1.8974965945	-0.6186161565	 0.134392
H	-0.6934661315	 1.6809265859	 1.1421322293	 0.111751
H	-2.1102771461	-0.4236678666	 0.3967526756	 0.130061
H	-1.3091512109	-1.5974279842	-0.6726985801	 0.140359
H	 1.2889176277	-0.285596982	 1.9958222094	 0.092245
H	 2.6779860229	-1.875651971	 0.7472035687	 0.253513
H	 2.4614615076	-1.4733879393	-1.6819783646	 0.129639
61.6626	188.6109	230.1097	278.6307	305.7786	322.9335	355.825	426.988	537.8723	569.6504	610.1016	643.4531	752.3566	794.8561	861.8764	913.6251	922.8757	939.7194	956.3243	1013.3403	1072.1057	1075.8686	1122.1601	1124.2635	1160.328	1196.9974	1219.3364	1275.0177	1299.1139	1344.2991	1409.7633	1426.1788	1437.583	1484.6263	1495.7673	1668.1112	1892.3922	3034.7672	3055.3105	3059.2553	3105.6616	3112.3935	3114.5746	3183.9163	3639.1403
CC12CC(=O)C1NC=N2	C[C@]12CC(=O)[C@H]1NC=N2	
InChI=1S/C6H8N2O/c1-6-2-4(9)5(6)7-3-8-6/h3,5H,2H2,1H3,(H,7,8)	InChI=1S/C6H8N2O/c1-6-2-4(9)5(6)7-3-8-6/h3,5H,2H2,1H3,(H,7,8)/t5-,6+/m1/s1
