13
gdb 128015	2.68785	1.61226	1.01563	0.9913	67.39	-0.278	-0.0759	0.2022	1080.4772	0.087509	-486.00801	-485.999777	-485.998832	-486.042192	28.299	
C	 0.0736710205	 1.455065785	 0.0870241603	-0.334886
N	 0.1626778598	 0.0053118337	 0.0901902216	-0.243638
C	 0.4739135717	-0.6181109694	-0.9532007534	 0.329406
O	 0.7822595611	 0.0273949792	-2.1446925858	-0.304152
N	 0.9290933021	-0.6541994291	-3.3928403468	 0.042305
N	 0.9523713684	-1.8869970388	-3.3957535981	-0.015845
N	 0.8379941631	-2.5993377031	-2.2491650899	-0.269639
C	 0.5607462142	-2.1113170955	-0.9750030058	 0.378263
O	 0.4142453007	-2.8489778182	-0.0377142725	-0.301576
H	 1.0457441284	 1.8749959518	 0.3735422529	 0.147739
H	-0.2037820668	 1.8770196633	-0.8846724531	 0.139134
H	-0.6511338152	 1.760192639	 0.8452306132	 0.140086
H	 0.873148492	-3.6013246178	-2.3786302327	 0.292803
44.1927	72.9648	113.3216	201.7044	209.1202	347.8697	497.1819	511.758	545.0155	561.105	577.6949	671.3332	684.3091	780.3534	851.8174	955.0546	1042.2195	1076.8355	1120.796	1130.0617	1170.5416	1320.5471	1433.7036	1439.8125	1480.4157	1499.0878	1621.2928	1767.0465	1843.3086	3024.8199	3086.0946	3118.946	3611.848
CN=C1ON=NNC1=O	CN=c1onn[nH]c1=O	
InChI=1S/C3H4N4O2/c1-4-3-2(8)5-6-7-9-3/h1H3,(H,5,7,8)	InChI=1S/C3H4N4O2/c1-4-3-2(8)5-6-7-9-3/h1H3,(H,5,7,8)
