20
gdb 37474	2.86458	1.70175	1.41611	2.0341	76.85	-0.2286	0.0781	0.3067	989.0136	0.174705	-403.100845	-403.09381	-403.092866	-403.132084	28.973	
C	 0.0405681695	 1.4477646071	 0.054897032	-0.252194
C	 1.3011639316	 0.6888165323	-0.0636329038	-0.04333
C	 1.7207999434	 0.0779213649	 1.2768618673	-0.032599
C	 2.0447116184	 1.0353410162	 2.4429184523	-0.240309
C	 1.0513040752	 0.8594284868	 3.5979397251	-0.073752
O	-0.290161306	 0.8719085026	 3.1346343329	-0.235936
C	-0.6115491797	-0.3287889298	 2.4443931976	-0.111968
C	 0.314265242	-0.6126273144	 1.2643901026	 0.016941
N	-0.0407944765	-0.0223016183	-0.078506919	-0.147418
H	-0.2396218928	 1.9159531032	 0.9932946385	 0.137177
H	-0.3141112489	 1.9561474994	-0.8366422972	 0.116573
H	 1.9256054981	 0.735808258	-0.9505350922	 0.091536
H	 2.5117759625	-0.6634473992	 1.1506812562	 0.080314
H	 3.0634994277	 0.8811273162	 2.8153789008	 0.096144
H	 1.986843519	 2.070779035	 2.09126267	 0.109175
H	 1.2480096278	-0.0820136946	 4.1385602285	 0.085297
H	 1.1392526652	 1.6802496232	 4.3154757146	 0.108418
H	-0.5700015007	-1.1733389875	 3.1528323858	 0.091269
H	-1.6451468477	-0.2259453377	 2.0986655587	 0.12087
H	 0.395645462	-1.6931573432	 1.1227345196	 0.083792
141.5438	157.7107	286.5392	347.6582	394.9738	451.353	494.7663	546.2289	666.2017	727.7104	745.9708	776.2117	803.3664	863.3462	893.8864	920.3095	958.2443	984.1325	1023.4432	1053.3457	1060.2206	1074.4595	1107.8517	1124.8783	1131.6349	1140.5805	1169.7905	1204.8085	1225.7426	1244.4658	1266.8034	1294.2874	1326.89	1348.0327	1352.093	1364.8386	1374.7618	1390.0841	1421.2013	1483.3607	1485.4817	1499.8324	1504.7796	2960.0101	2965.2812	3037.283	3066.7989	3074.5766	3080.4311	3086.3168	3093.5887	3121.5523	3156.332	3210.6867
C1C2C3CCOCC3N12	C1[C@H]2[C@H]3CCOC[C@H]3N12	
InChI=1S/C7H11NO/c1-2-9-4-7-5(1)6-3-8(6)7/h5-7H,1-4H2	InChI=1S/C7H11NO/c1-2-9-4-7-5(1)6-3-8(6)7/h5-7H,1-4H2/t5-,6+,7-,8?/m1/s1
