16
gdb 44537	3.66485	1.53302	1.45464	4.5476	68.26	-0.2512	0.0588	0.31	932.4442	0.126697	-437.873667	-437.86713	-437.866185	-437.904771	26.23	
N	-0.071621477	 1.029769538	 0.6136303414	-0.574701
C	-0.006890709	-0.0623589213	-0.0040851545	 0.480352
O	 1.1367373019	-0.7118600776	-0.3949930169	-0.259768
C	 0.7909109589	-1.9339162399	-1.0438132964	 0.05397
C	 0.8234452152	-3.2261045016	-0.2213187371	-0.068156
C	 0.0549180478	-3.0681165547	 1.0566802487	-0.310793
C	-0.7268161637	-3.2505012987	-0.2085763327	-0.065469
C	-0.7475908684	-1.9554361588	-1.0286669862	 0.06199
O	-1.1215915851	-0.7490360453	-0.3712472545	-0.234568
H	 0.8646960375	 1.3847958758	 0.7914728762	 0.231172
H	 1.2916195144	-1.9849815961	-2.0109969589	 0.103308
H	 1.515407897	-4.0415738276	-0.386443538	 0.099894
H	 0.0742527697	-3.9401194543	 1.7016318719	 0.125986
H	 0.0406357727	-2.126377408	 1.5952017679	 0.151017
H	-1.3953804267	-4.0868392349	-0.3648529289	 0.100758
H	-1.2656586155	-2.0201799352	-1.9857775921	 0.105008
102.8636	148.4827	303.5001	397.1284	510.5879	562.7725	654.3791	712.6091	729.0955	762.9336	776.3172	802.575	844.6988	871.9875	913.8164	935.5202	977.8901	983.6604	1013.9894	1019.7186	1027.4637	1063.3434	1093.67	1108.0492	1119.0222	1186.1113	1227.596	1242.8382	1278.5099	1316.6173	1351.7671	1371.7628	1384.8137	1501.4532	1795.3217	3106.5877	3116.1616	3137.539	3196.6768	3204.5934	3220.0361	3539.0359
N=C1OC2C3CC3C2O1	[NH][C]1O[C@H]2[C@H]3C[C@H]3[C@H]2O1	
InChI=1S/C6H7NO2/c7-6-8-4-2-1-3(2)5(4)9-6/h2-5,7H,1H2	InChI=1S/C6H7NO2/c7-6-8-4-2-1-3(2)5(4)9-6/h2-5,7H,1H2/t2-,3+,4-,5+
