16
gdb 56349	4.53994	0.83819	0.7608	4.5693	74.52	-0.2548	-0.0499	0.2049	1440.5143	0.123772	-434.046116	-434.037098	-434.036154	-434.081168	31.633	
N	-0.0054394445	 1.2950535801	-0.5312830476	-0.552597
C	 0.065076512	 0.0057242579	-0.0497156022	 0.271565
N	 1.1026439124	-0.6809339976	 0.2336681938	-0.265839
C	 2.3899458778	-0.0545851511	 0.0939763785	-0.037819
C	 3.6131403789	-0.9628423906	 0.3250642594	-0.091877
O	 4.1914993795	-0.5742865808	-0.9406755177	-0.268542
C	 2.9920583726	 0.1101984985	-1.334025258	-0.07946
C	-1.2323158696	-0.63026673	 0.0972622319	 0.273004
N	-2.2813876971	-1.1006900562	 0.2131303104	-0.31357
H	 0.8128206761	 1.8765362436	-0.4465118012	 0.272115
H	-0.889322867	 1.7757481987	-0.4806507284	 0.27841
H	 2.4532597154	 0.8773032147	 0.6761576681	 0.082353
H	 4.2696983299	-0.7205498012	 1.167282803	 0.106181
H	 3.3457736421	-2.0259582282	 0.3530126883	 0.116244
H	 2.4297224831	-0.4351969546	-2.103388427	 0.111095
H	 3.1923357985	 1.1306154669	-1.6830090815	 0.098738
37.0248	73.2366	113.7916	146.1754	216.6859	315.3052	366.5479	386.1574	406.5593	456.496	536.6705	602.0712	724.4717	743.6029	847.7109	872.0396	894.5844	989.0393	1027.4622	1035.6257	1080.9357	1128.6604	1157.9745	1168.565	1178.5389	1245.2599	1303.6902	1337.5898	1347.7218	1392.843	1503.7128	1530.2761	1635.984	1710.6249	2361.2427	2977.5663	3006.8875	3028.9017	3056.8217	3082.2796	3592.4091	3709.7696
NC(=NC1COC1)C#N	NC(=NC1COC1)C#N	
InChI=1S/C5H7N3O/c6-1-5(7)8-4-2-9-3-4/h4H,2-3H2,(H2,7,8)	InChI=1S/C5H7N3O/c6-1-5(7)8-4-2-9-3-4/h4H,2-3H2,(H2,7,8)
