15
gdb 69231	2.69209	1.64171	1.1796	1.6259	66.53	-0.2541	-0.0312	0.2229	1012.1361	0.114518	-454.007395	-453.999806	-453.998862	-454.039334	29.178	
N	-0.0780814485	 1.4459030225	-0.163265716	-0.585368
C	-0.0600569604	 0.0273988313	-0.016748949	 0.19616
C	-0.4596951082	-0.8294724168	-1.1939573298	-0.303985
C	-1.3221237122	-0.8151284213	 0.0513757331	-0.204701
C	-1.0457468215	-1.9284249803	 1.0206882088	 0.432925
O	-1.8030270169	-2.7606059444	 1.4486006123	-0.347471
N	 0.3077855053	-1.8185015386	 1.3687913367	-0.375434
C	 0.9223218518	-0.6511544826	 0.9191233767	 0.364173
O	 2.0120667525	-0.2526882221	 1.2460696058	-0.351985
H	-0.1489924442	 1.896025353	 0.7450143494	 0.241692
H	 0.7997686256	 1.758337409	-0.5690165386	 0.249179
H	-0.8536661108	-0.279303392	-2.0406426583	 0.143398
H	 0.1109395304	-1.7192774627	-1.4346990167	 0.137487
H	-2.3165610482	-0.3933591969	 0.0113392515	 0.131674
H	 0.7491011251	-2.4528589681	 2.0192004541	 0.272256
137.2722	143.9264	236.3326	266.1858	309.6115	359.0582	427.7781	530.163	562.0532	612.5042	644.0072	723.9824	758.2054	781.8937	812.4611	867.8906	894.0535	907.4169	981.0108	1012.0412	1071.1878	1086.8889	1123.3587	1235.5972	1269.5813	1285.662	1336.879	1346.3517	1405.0145	1483.4348	1668.6433	1833.1726	1872.1069	3141.2068	3224.6481	3237.7951	3492.7115	3563.4117	3622.1737
NC12CC1C(=O)NC2=O	N[C@]12C[C@H]1C(=O)NC2=O	
InChI=1S/C5H6N2O2/c6-5-1-2(5)3(8)7-4(5)9/h2H,1,6H2,(H,7,8,9)	InChI=1S/C5H6N2O2/c6-5-1-2(5)3(8)7-4(5)9/h2H,1,6H2,(H,7,8,9)/t2-,5+/m0/s1
