23
gdb 73251	2.32583	1.62465	1.3769	0.2492	90.63	-0.2345	0.0314	0.266	1106.9356	0.208131	-351.172098	-351.163826	-351.162882	-351.204304	33.901	
C	-0.0412101005	 1.5393843043	-0.011499492	-0.463579
C	-0.0191370778	 0.0119520945	 0.0172260629	 0.299316
C	-1.3369898156	-0.6877798686	 0.5081255317	-0.253864
C	-0.4776889809	-1.6495136596	 1.3682517869	-0.238613
C	 0.7205081894	-0.6698291621	 1.216298397	-0.01267
C	 2.1250160311	-1.1987712542	 0.9432317916	-0.235332
C	 2.1919836414	-2.0543818579	-0.3313346343	-0.258781
C	 1.3968581367	-1.4581220168	-1.4623040554	-0.064934
C	 0.435391871	-0.5480136549	-1.3025306901	-0.096267
H	 0.9619001535	 1.9473886594	-0.1793528129	 0.114759
H	-0.6863815096	 1.9108039034	-0.8169112077	 0.110872
H	-0.4197913554	 1.9451477744	 0.9329989243	 0.106379
H	-1.9402535205	-0.0107299261	 1.1213555352	 0.092179
H	-1.9780245667	-1.1305050939	-0.2583535361	 0.093017
H	-0.8223216154	-1.8553954062	 2.3844095405	 0.091115
H	-0.303949727	-2.603660556	 0.8639621821	 0.104344
H	 0.7440714038	 0.0178246431	 2.0687421646	 0.059931
H	 2.8004140632	-0.3409909674	 0.8275430098	 0.097881
H	 2.4936923953	-1.7706793036	 1.8033009884	 0.090474
H	 3.2366620864	-2.1867852172	-0.6384705298	 0.098425
H	 1.8234191779	-3.0706173894	-0.1268879685	 0.108409
H	 1.6248176321	-1.8181334411	-2.4633925987	 0.080851
H	-0.0986157726	-0.1776505742	-2.1776089695	 0.076086
117.1181	189.4096	214.1218	256.6288	273.3107	328.6512	365.6887	473.2473	482.985	552.6014	594.4318	684.258	719.0944	760.6227	776.9612	868.7464	871.8571	899.5119	923.1247	950.5076	956.2207	985.2404	1009.7457	1013.8661	1042.1861	1103.9912	1111.8825	1147.266	1163.7824	1172.5482	1210.3934	1214.5458	1252.5816	1266.2123	1272.5572	1299.5344	1310.3303	1337.5353	1371.4122	1387.6673	1405.6847	1427.4067	1474.8755	1480.6277	1487.3556	1493.6984	1496.2715	1502.3342	1717.7058	2997.3679	3014.5116	3018.5284	3039.5239	3043.8051	3047.0347	3056.7732	3063.0872	3083.98	3091.9905	3097.4023	3116.5766	3118.5254	3151.6029
CC12CCC1CCC=C2	C[C@]12CC[C@H]1CCC=C2	
InChI=1S/C9H14/c1-9-6-3-2-4-8(9)5-7-9/h3,6,8H,2,4-5,7H2,1H3	InChI=1S/C9H14/c1-9-6-3-2-4-8(9)5-7-9/h3,6,8H,2,4-5,7H2,1H3/t8-,9+/m1/s1
