23
gdb 121528	4.91657	0.44682	0.42615	1.3166	93.03	-0.2401	0.0598	0.2999	2622.4907	0.202958	-388.270705	-388.258905	-388.25796	-388.310313	40.782	
C	 0.1246717005	 1.4906695034	 0.1421940236	-0.372058
C	-0.0698065112	-0.0293977329	-0.0262582806	-0.121581
C	-1.5644711429	-0.4066547409	-0.0134831944	-0.372579
C	 0.587423504	-0.5138174149	-1.2414224633	 0.165445
C	 1.1170810761	-0.8947329103	-2.2546350541	-0.032001
C	 1.765683228	-1.3895400783	-3.464587512	-0.356621
C	 2.0466827258	-2.9037039816	-3.4224987003	-0.153296
C	 2.733323162	-3.3976878085	-4.6888463488	-0.073815
O	 2.9447343293	-4.793999207	-4.55279498	-0.422098
H	 1.1860968283	 1.751465219	 0.1618395296	 0.121265
H	-0.3413894457	 2.0323059346	-0.686919133	 0.121508
H	-0.3337729348	 1.8319612354	 1.0761046431	 0.109281
H	 0.4053896453	-0.522947445	 0.8334745137	 0.101295
H	-2.088742213	 0.0700530407	-0.8476847176	 0.121311
H	-1.6977335043	-1.4878602748	-0.1042241079	 0.122122
H	-2.0328172418	-0.0768583702	 0.9196960094	 0.109053
H	 1.1390677974	-1.158959954	-4.3372661013	 0.123411
H	 2.7087289539	-0.8479825831	-3.6224122445	 0.123544
H	 2.6774712314	-3.1394299418	-2.5592706739	 0.116794
H	 1.1081794532	-3.4511886379	-3.2880404011	 0.116478
H	 2.1039576765	-3.172375149	-5.5662245343	 0.083535
H	 3.6866830756	-2.8608853227	-4.8284730402	 0.083635
H	 3.3794766365	-5.1118685404	-5.349315232	 0.285371
10.2576	59.3737	68.5783	113.7545	134.7583	158.478	224.8738	242.1546	257.2717	262.1116	308.4913	357.7684	396.871	496.319	520.034	550.9761	713.3087	755.7022	866.02	884.2064	930.1445	962.9161	1018.5968	1022.4488	1070.1989	1086.1337	1115.7765	1122.3023	1151.5532	1209.2573	1213.0067	1231.1369	1300.6258	1304.5793	1311.3344	1327.0486	1350.5172	1375.7684	1394.6847	1417.1688	1465.2869	1477.2617	1484.7683	1488.8478	1498.0625	1499.4223	1509.993	1528.2612	2363.8237	2953.7377	2978.5181	3000.9592	3005.1317	3031.0508	3034.3086	3037.8961	3053.9432	3099.5617	3104.427	3109.6922	3117.3143	3119.2695	3830.2765
CC(C)C#CCCCO	CC(C)C#CCCCO	
InChI=1S/C8H14O/c1-8(2)6-4-3-5-7-9/h8-9H,3,5,7H2,1-2H3	InChI=1S/C8H14O/c1-8(2)6-4-3-5-7-9/h8-9H,3,5,7H2,1-2H3
