21
gdb 111692	2.47057	1.54364	1.23646	1.7682	77.67	-0.2462	0.0677	0.3139	1115.078	0.183962	-424.206861	-424.198321	-424.197377	-424.23994	33.268	
C	 0.5421970691	 1.2988896877	-0.1204226396	-0.254498
O	-0.2180850977	 0.1777508173	 0.3117428553	-0.256583
C	 0.4601925375	-0.5892333448	 1.268643849	 0.125388
C	-0.0901176802	-1.9209632991	 1.6592955951	-0.108185
C	-1.1189547511	-2.5671782649	 0.7236616429	-0.244263
C	-0.272361584	-3.2762564636	-0.3570182631	-0.218339
C	 1.0360004791	-2.4583711883	-0.4903670653	 0.11278
O	 1.0051207636	-1.5244205658	-1.5623821085	-0.442774
C	 1.2385420539	-1.8337091968	 0.9035302981	-0.131113
H	 1.4584100986	 0.9816843887	-0.6339478703	 0.134985
H	-0.087935059	 1.8635602972	-0.8114900609	 0.129948
H	 0.8076856053	 1.9446263664	 0.7282206264	 0.115256
H	 0.8822692491	 0.0209834368	 2.0684542095	 0.08564
H	-0.1264419376	-2.1614054011	 2.7161782218	 0.085743
H	-1.7578803956	-3.2664187836	 1.26839764	 0.098565
H	-1.7749245406	-1.8082374978	 0.2858621669	 0.116711
H	-0.0195477308	-4.2830594269	-0.0048452525	 0.096573
H	-0.7720992791	-3.3792469976	-1.3244786377	 0.100785
H	 1.8789459711	-3.1147534407	-0.724339255	 0.082966
H	 0.2924778015	-0.9067286428	-1.3574350278	 0.287947
H	 2.1886886072	-1.9941920503	 1.4016538856	 0.082468
86.6355	128.0456	180.0945	203.5688	228.5864	320.053	391.7052	410.0272	520.8363	565.2887	620.8474	645.162	743.0548	765.2709	781.6814	817.2882	860.203	930.5631	959.6518	982.0486	1008.0039	1048.9168	1052.5581	1071.7693	1093.9302	1119.7313	1121.8797	1183.3194	1193.7364	1203.8045	1214.1332	1250.4044	1291.3764	1299.0595	1315.4432	1334.5224	1351.072	1361.508	1428.396	1459.5826	1479.5088	1486.9835	1489.3811	1503.7939	1511.1815	2999.6995	3036.5915	3056.3936	3064.9747	3069.8736	3087.5121	3091.6886	3104.0435	3122.6194	3158.5035	3168.7357	3774.8062
COC1C2CCC(O)C12	CO[C@H]1[C@H]2CC[C@@H](O)[C@@H]12	
InChI=1S/C7H12O2/c1-9-7-4-2-3-5(8)6(4)7/h4-8H,2-3H2,1H3	InChI=1S/C7H12O2/c1-9-7-4-2-3-5(8)6(4)7/h4-8H,2-3H2,1H3/t4-,5+,6-,7-/m0/s1
