21
gdb 38300	2.67141	1.91671	1.68174	1.5112	80.06	-0.2396	0.0757	0.3153	931.2328	0.187289	-387.063498	-387.057015	-387.056071	-387.093806	28.659	
C	-0.0047154358	 1.4569167397	-0.2926228919	-0.230954
C	 1.5232088786	 1.3006983468	-0.0530831202	-0.001765
C	 1.1481565671	 0.1220073216	 0.8994279623	-0.209007
C	-0.1440493965	-0.0575494022	 0.0442536842	-0.038238
C	 0.1241183069	-1.0129411197	-1.1589043805	 0.091089
C	 0.3389368257	-0.3306334243	-2.5276480878	-0.254617
C	 1.8184736868	-0.3427281154	-2.0865184831	 0.102415
C	 2.3305709311	 0.8758907867	-1.2986364896	-0.227136
O	 1.5147300494	-1.4511828405	-1.1961679779	-0.283637
H	-0.4525531879	 2.0567706691	 0.5052546161	 0.0938
H	-0.363465945	 1.8450025528	-1.2473357276	 0.088824
H	 2.0301689547	 2.1536686766	 0.4082759978	 0.058963
H	 1.8295425885	-0.7226099829	 0.9772189515	 0.113574
H	 0.9001689937	 0.5004594759	 1.8949948728	 0.085965
H	-1.0563189504	-0.3595246849	 0.5647890246	 0.057596
H	-0.5471187703	-1.875164507	-1.1259350531	 0.074502
H	 0.1804829286	-1.0391885867	-3.3429520122	 0.105069
H	-0.1566568556	 0.609464939	-2.7619869639	 0.101059
H	 2.5552170604	-0.6303054223	-2.8443279373	 0.073121
H	 2.4034472881	 1.7254626798	-1.9922324078	 0.094478
H	 3.3559890619	 0.6494735478	-0.9790415066	 0.104895
233.0759	291.8209	349.4795	404.8282	430.1133	444.5963	526.1964	599.6407	745.8709	763.3655	803.5365	842.5867	861.74	864.4485	881.5967	895.605	919.1912	941.8287	956.2332	983.035	1023.5781	1051.5058	1066.1158	1088.6653	1099.5702	1111.2873	1141.9738	1149.2159	1181.0055	1203.9643	1246.4917	1257.3979	1262.9335	1273.7093	1288.4605	1311.0017	1341.5235	1345.8617	1359.7289	1389.2113	1392.1348	1466.72	1471.6735	1494.5485	1524.9531	3009.2963	3046.2389	3048.7401	3052.8796	3057.1374	3059.0462	3069.2513	3079.5841	3090.8903	3108.8941	3152.17	3154.1292
C1C2CC1C1CC(C2)O1	C1[C@H]2C[C@@H]1[C@H]1C[C@@H](C2)O1	
InChI=1S/C8H12O/c1-5-2-6(1)8-4-7(3-5)9-8/h5-8H,1-4H2	InChI=1S/C8H12O/c1-5-2-6(1)8-4-7(3-5)9-8/h5-8H,1-4H2/t5-,6+,7-,8-/m1/s1
