18
gdb 33004	4.98389	0.93229	0.7932	2.0473	83.12	-0.2284	-0.0182	0.2101	1435.9252	0.149315	-402.005327	-401.997194	-401.99625	-402.038565	30.305	
C	 0.0391678957	 1.5586344595	 0.1103120245	-0.392959
C	-0.0018865652	 0.0460390618	-0.0094196797	-0.048654
O	 0.6697053623	-0.4946176076	 1.1258684694	-0.275148
C	 0.7650635172	-1.8420607119	 1.2446461091	 0.350347
C	 0.2518671877	-2.7724621974	 0.333241069	-0.115113
N	 0.3711385956	-4.0942090685	 0.4939022573	-0.258277
C	 1.0087827053	-4.5430085398	 1.5729747806	-0.012054
C	 1.5550357755	-3.6962508438	 2.5383764642	-0.108018
C	 1.4323771411	-2.3269702026	 2.3734712636	-0.168065
H	 1.072321111	 1.9156087972	 0.1330594374	 0.132834
H	-0.4680680729	 2.0153818913	-0.744483442	 0.122345
H	-0.4595533649	 1.8863405332	 1.0264205255	 0.132845
H	-1.0385008215	-0.3176571779	-0.0373144795	 0.111451
H	 0.4950504011	-0.2886266923	-0.9306487658	 0.111456
H	-0.2743151388	-2.4487310474	-0.5586814001	 0.102917
H	 1.0889569004	-5.6222051361	 1.6746111497	 0.103683
H	 2.0666366113	-4.1062275727	 3.4025087391	 0.100674
H	 1.8360674092	-1.619793025	 3.0896176076	 0.109734
61.5619	115.2116	163.4069	236.1812	258.1483	340.3975	427.0669	431.0678	533.8059	602.7416	634.6257	733.0658	817.8534	829.2751	837.4909	919.7584	938.8125	953.6838	989.9198	1027.3745	1060.628	1076.0867	1130.4071	1140.684	1183.6723	1227.7668	1285.5888	1298.6972	1309.2494	1362.9565	1401.4875	1424.8175	1460.4874	1484.6834	1499.418	1514.2782	1529.3422	1608.231	1632.7283	2997.1743	3035.241	3048.7268	3124.1574	3128.0007	3158.002	3178.3711	3186.8077	3202.6501
CCOC1=CN=CC=C1	CCOc1cnccc1	
InChI=1S/C7H9NO/c1-2-9-7-4-3-5-8-6-7/h3-6H,2H2,1H3	InChI=1S/C7H9NO/c1-2-9-7-4-3-5-8-6-7/h3-6H,2H2,1H3
