18
gdb 83246	2.86653	1.46461	1.28573	3.925	73.78	-0.2076	0.0192	0.2267	1047.2665	0.15	-435.242943	-435.234691	-435.233746	-435.27547	32.117	
N	 0.018327488	 1.4401141307	 0.1252452576	-0.527738
C	 0.0148172133	 0.0113773572	-0.0214214699	-0.021851
C	-1.3121095391	-0.7269737494	-0.0358931805	 0.028399
O	-2.4632013193	 0.0793199839	-0.0079732488	-0.250771
C	-3.1171677105	 0.1628696313	-1.2602737945	-0.166672
C	-2.148766304	 0.4972570841	-2.3857814677	 0.347533
N	-2.6578414038	 1.2752040494	-3.3993451801	-0.545973
N	-0.9280201	 0.1215628993	-2.4019356081	-0.286551
C	-0.4885113401	-0.6718823888	-1.2948259317	-0.061665
H	 0.302376117	 1.8831823137	-0.743368068	 0.236067
H	-0.9266088584	 1.7581029864	 0.3178744733	 0.234051
H	 0.8279036161	-0.5021813627	 0.4880974725	 0.087474
H	-1.4230428316	-1.6507833389	 0.5276961817	 0.089061
H	-3.6303048957	-0.7826110875	-1.5014627055	 0.115858
H	-3.8764032477	 0.9441334713	-1.1599970528	 0.120828
H	-3.6557582677	 1.2804149993	-3.536369145	 0.253869
H	-2.1086827688	 1.2836527438	-4.2468343234	 0.257393
H	 0.0391250922	-1.572523883	-1.5964466391	 0.090689
102.7715	142.7283	179.1688	266.8362	307.3356	342.5677	393.0663	438.1692	496.377	542.2497	556.2511	618.4864	652.0857	767.0269	777.465	799.5085	861.4345	888.2143	958.1735	983.1124	1029.6331	1060.4368	1072.8328	1098.933	1121.4086	1186.7459	1221.4069	1267.3078	1269.939	1280.9047	1327.9885	1354.8529	1362.7745	1403.9691	1432.3685	1486.4172	1629.0717	1669.0707	1730.0829	2974.2631	3084.0352	3113.4053	3122.0432	3141.5707	3495.2879	3566.318	3572.5954	3693.6447
NC1C2OCC(N)=NC12	N[C@H]1[C@H]2OCC(=N[C@@H]12)N	
InChI=1S/C5H9N3O/c6-2-1-9-5-3(7)4(5)8-2/h3-5H,1,7H2,(H2,6,8)	InChI=1S/C5H9N3O/c6-2-1-9-5-3(7)4(5)8-2/h3-5H,1,7H2,(H2,6,8)/t3-,4+,5-/m1/s1
