17
gdb 10835	4.86937	1.52054	1.21333	4.9856	66.58	-0.2427	0.0442	0.2868	989.5754	0.143254	-401.018032	-401.010336	-401.009392	-401.050376	28.187	
C	-0.214149343	 1.5100063916	 0.0094506629	-0.413179
C	 0.0246168444	-0.0005270328	 0.0012056131	-0.024878
C	 0.8260991121	-0.448845423	-1.2120162682	-0.067785
O	 1.0944376768	-1.850828966	-1.1792156161	-0.238866
C	 1.4614996812	-2.4510653297	-0.0274084442	 0.459444
N	 2.0154711916	-3.5838325894	-0.0848949934	-0.543418
O	 1.1357516557	-1.853199296	 1.1526195693	-0.270493
C	 0.8134888763	-0.4595663029	 1.2182928178	-0.070985
H	 0.732326439	 2.0620917011	 0.0137172697	 0.124892
H	-0.7801084593	 1.8224827925	-0.873397987	 0.128685
H	-0.7825768916	 1.8134704894	 0.8939628574	 0.127646
H	-0.9373628523	-0.5278823245	-0.0090113076	 0.100557
H	 0.286046427	-0.2820691474	-2.1472338732	 0.125032
H	 1.7761186201	 0.1043389832	-1.2653884786	 0.108529
H	 2.1795855491	-3.925831686	 0.8597112707	 0.223939
H	 1.7449157294	 0.1198077517	 1.3048533213	 0.108476
H	 0.2504266434	-0.3346126619	 2.1469500263	 0.122405
67.8786	119.2551	204.0711	216.1955	272.8166	420.4356	425.9109	441.1673	560.7217	689.2063	733.0355	809.7653	826.099	886.8371	907.1848	943.3703	989.6816	1008.1926	1095.9992	1120.964	1160.2059	1186.5811	1188.2358	1247.616	1283.8691	1307.0552	1327.7989	1380.421	1412.7728	1432.8577	1435.1957	1498.6007	1498.7548	1510.5915	1518.2207	1758.6291	2992.6854	2998.3946	3033.7952	3040.3175	3092.183	3097.7071	3104.6269	3110.122	3525.1472
CC1COC(=N)OC1	C[C@H]1CO[C]([NH])OC1	
InChI=1S/C5H9NO2/c1-4-2-7-5(6)8-3-4/h4,6H,2-3H2,1H3	InChI=1S/C5H9NO2/c1-4-2-7-5(6)8-3-4/h4,6H,2-3H2,1H3/t4-
