18
gdb 66810	3.67978	1.798	1.78335	1.644	76.58	-0.2237	0.0737	0.2974	863.8203	0.150062	-364.740529	-364.734324	-364.73338	-364.770703	26.634	
C	 0.0455320007	 1.5434805739	 0.0265572641	-0.521424
C	 0.0006674582	 0.0448649303	 0.0220427957	 0.330816
C	 0.5071903793	-0.8816871064	-1.0755413337	-0.13722
C	-0.4767427394	-2.0211074901	-1.2910235749	-0.07948
C	-1.6509031251	-1.862184462	-0.336388426	-0.110524
C	-0.5309580885	-2.820180978	-0.0095531493	-0.037491
N	 0.0530784029	-1.89618968	 1.0133589953	-0.151666
C	 1.0435567892	-1.0058962146	 0.3359335364	-0.093046
C	-1.0394786518	-0.8857408654	 0.6839945687	-0.076322
H	 0.9743887033	 1.9110183956	-0.4217131125	 0.121315
H	-0.7878830404	 1.9678472238	-0.5459102336	 0.121477
H	-0.0109330628	 1.9429624465	 1.0454194732	 0.122943
H	 1.1251562234	-0.4877222383	-1.8722662643	 0.084315
H	-0.6138016946	-2.4991916114	-2.2518812184	 0.087638
H	-2.691626726	-2.0408859335	-0.5748768215	 0.088114
H	-0.493960415	-3.8986962842	 0.08392555	 0.089374
H	 2.0813926391	-0.9406843723	 0.6424236255	 0.086558
H	-1.6312458823	-0.5267694839	 1.5264896453	 0.074623
191.6322	216.1762	267.7863	550.9069	563.3974	597.3367	714.4632	757.613	780.1171	787.483	792.5972	825.34	843.3813	866.1225	891.3833	898.4761	924.102	961.1441	984.5054	1006.6465	1009.7673	1030.9714	1037.9329	1052.3681	1063.9521	1088.8867	1117.151	1171.2179	1183.2051	1204.764	1226.4509	1254.1021	1263.4699	1298.4587	1343.7311	1411.4189	1440.009	1487.4484	1496.9896	3022.353	3081.7282	3095.8158	3108.5092	3172.1558	3180.4974	3192.4064	3199.4669	3213.5534
CC12C3C4C5C4N(C13)C25	C[C@@]12[C@@H]3[C@@H]4[C@H]5[C@@H]4N([C@H]13)[C@@H]25	
InChI=1S/C8H9N/c1-8-4-2-3-5(2)9(6(3)8)7(4)8/h2-7H,1H3	InChI=1S/C8H9N/c1-8-4-2-3-5(2)9(6(3)8)7(4)8/h2-7H,1H3/t2-,3-,4+,5+,6+,7-,8-/m0/s1
