23
gdb 54256	2.18736	1.35351	1.31917	2.4984	84.55	-0.2379	-0.0094	0.2285	1189.366	0.205244	-388.334627	-388.324724	-388.32378	-388.370566	36.924	
C	 0.0257046404	 1.368944605	-0.3136725002	-0.482299
C	-0.0220751394	-0.1094618506	 0.0531517685	 0.371555
O	 1.0003610085	-0.6969619346	 0.3245632981	-0.312734
C	-1.4027791613	-0.8081697192	 0.0900758886	 0.198061
C	-2.1063058299	-0.3507919553	 1.3829229434	-0.460839
C	-2.2200776233	-0.4965586533	-1.1874822974	-0.246064
C	-1.6273308482	-1.4474413454	-2.2362274815	-0.208898
C	-1.4073652049	-2.7636246098	-1.4575945091	-0.199558
C	-1.2276722401	-2.3493612958	 0.0304849743	-0.240627
H	 0.0212304	 1.4690434097	-1.4054076	 0.14831
H	-0.8310745348	 1.9307345495	 0.0655401973	 0.132248
H	 0.9556958873	 1.7973269423	 0.0626132768	 0.141167
H	-2.2524848245	 0.7335947482	 1.4182991606	 0.114878
H	-3.0928100955	-0.8202841993	 1.4533106729	 0.119952
H	-1.5304226862	-0.6410152146	 2.2676489511	 0.12978
H	-3.2708596109	-0.7528290241	-1.0004968629	 0.094727
H	-2.1969329825	 0.5556345778	-1.4829760575	 0.092698
H	-2.2672152972	-1.5704329255	-3.1144353758	 0.093384
H	-0.6674777026	-1.0533972814	-2.5929688814	 0.101299
H	-2.2814194232	-3.4136673363	-1.5667520155	 0.096878
H	-0.5495259024	-3.324097393	-1.8378654374	 0.102567
H	-0.2491011628	-2.6251617157	 0.4254014429	 0.127166
H	-1.9841713567	-2.8296776586	 0.6581569442	 0.086348
21.5538	49.3844	147.5036	166.9697	221.8261	245.9788	295.5486	312.3573	363.1086	440.4492	509.1271	554.8316	595.9585	620.8603	700.4908	777.6802	832.2961	863.0993	905.4616	917.3172	943.092	968.4307	995.0542	1002.7174	1036.4206	1067.2698	1073.3904	1124.7421	1160.3136	1184.9764	1218.8808	1247.0801	1258.1834	1299.7453	1315.5685	1330.3134	1345.7718	1354.8079	1381.1412	1410.0748	1464.6993	1477.4472	1485.0444	1490.8063	1493.7087	1496.0229	1501.8145	1516.0958	1798.169	3023.3865	3030.3594	3032.2239	3044.0627	3045.9184	3060.8508	3085.0145	3093.3789	3097.1893	3100.376	3103.742	3112.6233	3126.3096	3152.7672
CC(=O)C1(C)CCCC1	CC(=O)C1(C)CCCC1	
InChI=1S/C8H14O/c1-7(9)8(2)5-3-4-6-8/h3-6H2,1-2H3	InChI=1S/C8H14O/c1-7(9)8(2)5-3-4-6-8/h3-6H2,1-2H3
