18
gdb 13841	3.83476	1.58826	1.34585	2.3524	73.4	-0.2276	-0.0131	0.2145	976.8319	0.153524	-347.840594	-347.832406	-347.831461	-347.87444	29.431	
C	 0.1179499168	 1.3525521192	 0.3802041542	-0.479443
C	 0.0514430608	-0.1389074457	 0.1017706918	 0.3846
O	 1.0457843086	-0.8257942322	 0.0717801661	-0.29727
C	-1.3513561369	-0.7250912302	-0.1328590668	-0.135929
C	-1.325666238	-2.1888227681	-0.6390948655	-0.225386
C	-1.6439248933	-3.0745689151	 0.5945310818	-0.248682
C	-2.2283528682	-2.0978680064	 1.5841020204	-0.045072
C	-2.0898039012	-0.8324804133	 1.1937358145	-0.086108
H	 1.1399836024	 1.6396715002	 0.6299119857	 0.141554
H	-0.2103917213	 1.9084896807	-0.505993669	 0.139609
H	-0.5567212827	 1.6304887373	 1.1964848837	 0.138421
H	-1.8764858942	-0.0505566894	-0.8225895174	 0.081288
H	-2.0996042624	-2.3195552034	-1.4002947824	 0.097582
H	-0.3611804225	-2.4318850891	-1.0862046734	 0.122528
H	-2.3345074954	-3.8908409542	 0.3536953595	 0.10239
H	-0.7408119882	-3.5452708374	 1.0042052961	 0.120738
H	-2.6903569608	-2.4107495335	 2.5143931955	 0.095252
H	-2.4179364635	 0.0375442307	 1.7513158751	 0.093926
35.6984	64.2516	107.2658	195.0964	263.4496	364.4302	414.0087	559.0775	572.1511	676.6048	726.8646	780.894	789.4813	857.3895	912.4383	921.5065	960.2928	974.7704	976.8908	1036.1593	1059.8512	1073.8728	1133.0101	1176.3817	1184.0074	1220.4409	1269.3445	1299.6542	1316.2256	1346.3209	1375.2009	1381.2146	1462.523	1471.9231	1476.8765	1492.3722	1682.4645	1811.5793	3011.0804	3025.1605	3037.4949	3052.5943	3071.3051	3099.0905	3131.4279	3151.9751	3180.674	3206.5362
CC(=O)C1CCC=C1	CC(=O)[C@H]1CCC=C1	
InChI=1S/C7H10O/c1-6(8)7-4-2-3-5-7/h2,4,7H,3,5H2,1H3	InChI=1S/C7H10O/c1-6(8)7-4-2-3-5-7/h2,4,7H,3,5H2,1H3/t7-/m1/s1
