16
gdb 18999	4.94361	1.9333	1.67501	3.0934	68.71	-0.2329	-0.0104	0.2226	788.1766	0.132956	-346.587312	-346.581557	-346.580612	-346.617035	23.664	
O	-0.0189553336	 0.0055358491	-0.035058958	-0.328155
C	-0.0194819938	 1.2084399072	-0.0008926947	 0.410447
C	-1.2258238816	 2.1659565543	 0.0147828618	-0.365751
C	-0.4638301231	 3.4849144503	 0.0589793751	-0.008484
C	 0.7927421986	 3.3886393455	-0.8698603878	-0.054917
C	 1.5642898202	 4.3118924245	 0.1009430891	-0.237386
C	 0.7754867321	 3.3358960042	 1.0039143686	-0.054926
C	 1.1560822394	 2.1547257035	 0.0364668916	-0.120093
H	-1.8437840425	 2.0349192256	-0.8798359668	 0.124931
H	-1.8601907167	 1.985161986	 0.8890167037	 0.124914
H	-1.021129547	 4.422353834	 0.0802189371	 0.073432
H	 0.8016589263	 3.3976147314	-1.9615296431	 0.080831
H	 2.653405081	 4.219932549	 0.1083830558	 0.098479
H	 1.2567271816	 5.3620043454	 0.1276746593	 0.094005
H	 0.764290963	 3.2834424008	 2.0943389887	 0.080828
H	 2.1629412961	 1.7403769291	 0.0340576798	 0.081846
139.7581	322.2105	359.878	493.8357	589.6759	606.9284	676.6202	731.1742	804.3466	842.1159	873.7682	887.258	914.3384	933.6106	971.8194	994.5932	1010.8849	1059.794	1071.6063	1093.3326	1104.6479	1140.4271	1158.1399	1188.7246	1204.2896	1223.4911	1246.4336	1248.1915	1270.3115	1276.3644	1350.7733	1461.0938	1518.379	1857.5657	3045.7165	3049.6577	3091.7105	3093.1864	3093.963	3109.5257	3110.453	3140.4086
O=C1CC2C3CC2C13	O=C1C[C@@H]2[C@H]3C[C@@H]2[C@@H]13	
InChI=1S/C7H8O/c8-6-2-3-4-1-5(3)7(4)6/h3-5,7H,1-2H2	InChI=1S/C7H8O/c8-6-2-3-4-1-5(3)7(4)6/h3-5,7H,1-2H2/t3-,4-,5+,7+
