19
gdb 83163	2.64425	1.46191	1.32227	4.0102	75.43	-0.2269	0.0604	0.2873	1062.8203	0.162196	-419.245783	-419.237384	-419.23644	-419.278875	31.896	
C	-0.1807933441	 1.5719438543	 0.1169872286	-0.424584
C	-0.0134757281	 0.0749388968	-0.020555292	-0.03549
C	 0.6683732707	-0.6020492689	-1.197445845	-0.067053
C	 1.3760741747	 0.1360881191	-2.3176489299	-0.178266
N	 2.4052188496	 1.0415705127	-1.8297248436	-0.342795
C	 3.0871667186	 0.9506564503	-0.6359661572	 0.4159
O	 4.0805505974	 1.619395286	-0.4028640208	-0.417083
N	 2.55114261	 0.0834141724	 0.2899767158	-0.332772
C	 1.3221999699	-0.6353682736	 0.1532559697	-0.006449
H	 0.6820921897	 2.1256515174	-0.2554327259	 0.147682
H	-1.0599588455	 1.9135634759	-0.4404691082	 0.117811
H	-0.3309637527	 1.8466745198	 1.1666820473	 0.119316
H	-0.8582642631	-0.4919639453	 0.3652791948	 0.086689
H	 0.2149617997	-1.5276204172	-1.5376537847	 0.095021
H	 1.8116057121	-0.6197102421	-2.9893501696	 0.110348
H	 0.6574201007	 0.7115479488	-2.916355716	 0.112517
H	 2.9055557622	 1.5911774748	-2.5104176023	 0.249803
H	 2.939614333	 0.2088149082	 1.2114853507	 0.250194
H	 1.3277003551	-1.5737569092	 0.6997381383	 0.099211
89.0691	120.0831	147.3216	170.967	242.3699	408.4211	460.5249	466.8047	502.0813	542.5985	551.5142	633.6681	740.5765	757.2029	765.5908	784.2867	879.7165	926.3533	976.0597	1014.4821	1023.1088	1069.048	1104.3106	1128.8047	1145.7044	1163.2817	1200.0224	1254.8583	1275.458	1328.364	1357.9822	1385.3622	1424.6152	1428.2466	1452.4281	1474.1399	1491.2505	1502.5807	1507.3985	1537.5151	1800.6242	2977.3331	3019.0055	3036.8357	3089.0126	3120.6697	3141.499	3145.1909	3158.0714	3634.7128	3638.5193
CC1C2CNC(=O)NC12	C[C@H]1[C@H]2CNC(=O)N[C@@H]12	
InChI=1S/C6H10N2O/c1-3-4-2-7-6(9)8-5(3)4/h3-5H,2H2,1H3,(H2,7,8,9)	InChI=1S/C6H10N2O/c1-3-4-2-7-6(9)8-5(3)4/h3-5H,2H2,1H3,(H2,7,8,9)/t3-,4+,5-/m0/s1
