19
gdb 51235	3.3393	1.13492	0.98536	3.4437	75.69	-0.244	-0.023	0.2209	1236.8334	0.158138	-423.00242	-422.993804	-422.99286	-423.037002	31.425	
O	-0.1327017993	-0.0396638535	-0.2321609749	-0.241875
C	 0.0343235081	 1.1368765998	-0.0335443316	 0.157594
C	 1.3803562653	 1.8328494593	-0.1005174161	-0.367885
C	 1.3752159677	 2.9398211064	-1.1407726032	 0.448875
C	 1.3205672054	 2.5899973825	-2.6503042634	-0.271977
C	 2.4400562916	 3.6439976846	-2.9218130379	-0.226821
C	 2.5140217406	 3.9737299333	-1.4063224176	-0.14606
C	 1.4856973516	 5.010135513	-0.9292575967	-0.083445
O	 0.4508338011	 4.0048799267	-0.8018809097	-0.332525
H	-0.8163886953	 1.8091161037	 0.2091610334	 0.098999
H	 1.5847943129	 2.2788183796	 0.8820067255	 0.11962
H	 2.1499682223	 1.0886158617	-0.3241223457	 0.118767
H	 1.6204319904	 1.5632503702	-2.875755199	 0.112469
H	 0.3473813042	 2.7830110364	-3.1060676121	 0.114997
H	 3.3599662125	 3.2058857103	-3.3143640911	 0.108799
H	 2.1619078715	 4.4847413017	-3.5628700332	 0.105342
H	 3.488588462	 3.9573267788	-0.9193875683	 0.078712
H	 1.7100807765	 5.4719659685	 0.040708473	 0.103127
H	 1.2150400408	 5.797338977	-1.6440425313	 0.103285
39.8819	71.5308	98.7134	167.3855	266.7679	338.614	381.3676	399.3191	483.1344	650.7095	672.5923	739.558	819.7763	845.5774	878.0429	912.0232	940.2188	942.7599	972.4005	1002.0974	1031.6822	1042.6355	1103.2044	1130.7209	1133.3664	1151.3799	1185.3514	1212.0498	1234.7636	1247.8501	1266.9973	1298.0428	1307.912	1327.1696	1356.1074	1423.1865	1451.2332	1465.2609	1489.0134	1525.3144	1827.9984	2908.4265	3009.1321	3025.3174	3052.6456	3061.5814	3067.2212	3102.7678	3106.6619	3117.5516	3129.7519
O=CCC12CCC1CO2	O=CC[C@]12CC[C@H]1CO2	
InChI=1S/C7H10O2/c8-4-3-7-2-1-6(7)5-9-7/h4,6H,1-3,5H2	InChI=1S/C7H10O2/c8-4-3-7-2-1-6(7)5-9-7/h4,6H,1-3,5H2/t6-,7+/m0/s1
