13
gdb 24926	5.26149	1.36857	1.08737	2.747	66.94	-0.1913	0.01	0.2013	1010.665	0.091369	-452.757133	-452.750481	-452.749537	-452.788163	25.895	
N	-0.0108394545	 1.2730675051	 0.0133874368	-0.579129
C	-0.0169038244	 0.0131618581	 0.0309096756	 0.443715
N	-1.1414588005	-0.8110779036	 0.0673721061	-0.455965
C	-0.7101933768	-2.139567861	-0.0832912718	 0.207423
C	 0.6319819774	-2.0725272231	-0.0929079932	 0.382426
O	 1.243795265	-3.2534791627	-0.027873468	-0.193658
C	 0.1932625136	-4.1616537475	 0.0021874016	-0.018488
C	-1.0229048939	-3.53190396	-0.0085539846	-0.317011
O	 1.1328732354	-0.8182710247	 0.0114669391	-0.255024
H	 0.934558161	 1.6427775561	-0.0183791843	 0.236579
H	-2.0256511166	-0.4285886897	-0.2219307314	 0.276361
H	 0.4891492934	-5.1952837826	-0.024337858	 0.146654
H	-1.9840940491	-4.0194561445	 0.0076717821	 0.126118
108.1223	214.5034	326.9062	338.1812	387.7088	555.1521	586.8861	595.515	643.2736	697.3532	709.0982	741.7509	763.1047	807.6068	835.1411	868.0458	934.6143	1020.2503	1033.2842	1131.4183	1152.5071	1250.2405	1302.395	1324.3546	1456.9513	1504.3501	1529.1396	1684.4493	1803.3309	3266.6411	3305.8077	3555.8119	3672.649
N=C1NC2=C(OC=C2)O1	[NH][C@H]1Nc2c(occ2)O1	
InChI=1S/C5H4N2O2/c6-5-7-3-1-2-8-4(3)9-5/h1-2H,(H2,6,7)	InChI=1S/C5H5N2O2/c6-5-7-3-1-2-8-4(3)9-5/h1-2,5-7H/t5-/m0/s1
