14
gdb 46776	2.87674	1.89433	1.31323	3.2945	60.63	-0.266	-0.016	0.25	910.0567	0.103785	-473.872079	-473.865515	-473.864571	-473.903691	24.386	
O	 0.0482366916	 0.0212169547	 0.1737254717	-0.325522
C	 0.0254125917	 1.2144976077	 0.1679231409	 0.430716
O	-1.0933702097	 1.9394361097	 0.4098689466	-0.214279
C	-0.8777068379	 3.3536625375	 0.2752841736	-0.096648
C	 0.6453987299	 3.5756874142	 0.194634987	-0.038444
N	 1.2458845769	 3.9574224945	 1.4855655157	-0.263818
C	 2.0609778308	 3.0305993806	 1.7764286088	 0.120291
O	 2.2093086476	 1.9718289146	 0.9407166515	-0.209376
C	 1.2091846741	 2.1688873988	-0.0798092489	-0.072419
H	-1.3893667832	 3.6919375574	-0.6309444251	 0.125021
H	-1.3101209466	 3.8515630963	 1.1444992672	 0.146928
H	 0.8896538008	 4.3302829253	-0.5567810371	 0.107886
H	 2.6905830597	 2.9948555538	 2.6578442472	 0.158082
H	 1.6641308944	 1.9841431049	-1.0527194789	 0.131582
74.1647	138.6872	244.5201	338.8439	475.9174	531.9469	598.4171	677.3379	736.5359	793.0481	852.8469	892.1477	905.4813	952.5938	967.4116	999.3547	1027.2575	1075.5076	1093.6467	1119.4725	1184.4571	1236.8439	1248.8346	1284.9802	1312.2784	1328.0471	1345.0879	1401.5183	1515.2162	1692.8316	1891.4774	3057.7833	3081.089	3124.0812	3128.857	3227.9504
O=C1OCC2N=COC12	O=C1OC[C@H]2N=CO[C@@H]12	
InChI=1S/C5H5NO3/c7-5-4-3(1-8-5)6-2-9-4/h2-4H,1H2	InChI=1S/C5H5NO3/c7-5-4-3(1-8-5)6-2-9-4/h2-4H,1H2/t3-,4-/m1/s1
