16
gdb 42483	4.5062	0.75819	0.67615	0.4947	73.96	-0.2568	-0.0445	0.2123	1605.7973	0.122567	-437.840871	-437.831783	-437.830839	-437.87625	31.811	
O	-0.0073370312	-0.0814604617	 0.3572058482	-0.354248
C	 0.0621168923	 1.0982039534	 0.1154904671	 0.299398
O	 1.2058382119	 1.8001025742	 0.0423295883	-0.233572
C	 2.4110487306	 1.0407649805	 0.2924804862	-0.097737
C	 3.5731771779	 1.9847181665	 0.2141122012	 0.008758
C	 4.8767771102	 1.4725010028	-0.2796737764	-0.245805
N	 4.0960710629	 2.4197592982	-1.0878321109	-0.302874
C	-1.0815069586	 1.947693484	-0.1371420859	 0.227619
C	-2.0653721897	 2.6064736759	-0.3398870691	-0.354525
H	 2.3328913303	 0.5706702024	 1.2781976277	 0.134636
H	 2.4897891025	 0.2411185043	-0.452719403	 0.118993
H	 3.5698629049	 2.7704570741	 0.9659433836	 0.106509
H	 5.8014450576	 1.8677596573	 0.1298250245	 0.127431
H	 4.9301047349	 0.4321589555	-0.5919780261	 0.11682
H	 3.6141735463	 1.9304062365	-1.8387416504	 0.23431
H	-2.9354390828	 3.190115676	-0.5192832452	 0.214287
40.8842	58.2947	104.7913	153.3714	202.6457	271.7882	300.2334	374.5107	448.9674	560.9954	610.1719	659.2066	700.1054	775.6004	802.2195	835.5623	920.8841	934.9027	943.0312	1005.935	1010.3238	1076.034	1134.1183	1154.2622	1215.2693	1248.5199	1251.3002	1274.7944	1312.4272	1370.1953	1444.4608	1493.832	1515.0846	1790.1836	2238.1644	3041.3269	3088.3762	3109.529	3141.5144	3195.9438	3494.5291	3496.6136
O=C(OCC1CN1)C#C	O=C(OC[C@H]1CN1)C#C	
InChI=1S/C6H7NO2/c1-2-6(8)9-4-5-3-7-5/h1,5,7H,3-4H2	InChI=1S/C6H7NO2/c1-2-6(8)9-4-5-3-7-5/h1,5,7H,3-4H2/t5-/m1/s1
