21
gdb 104157	3.06389	1.16754	1.07662	3.1018	74.17	-0.2455	0.0646	0.31	1215.888	0.181781	-461.367395	-461.357942	-461.356997	-461.401462	36.034	
C	 0.0428150023	 1.53856937	-0.4212958366	-0.424315
C	 0.0114358867	 0.0340137878	-0.1601073384	 0.372822
C	-1.4090836383	-0.465265812	 0.1454989994	-0.086508
O	-1.936296938	 0.1415178165	 1.3057459038	-0.423918
C	 0.6959218794	-0.7973042431	-1.2708205876	-0.301264
C	 2.0736328068	-1.134825908	-0.6929912005	 0.115783
O	 2.9425247688	-0.0556026163	-1.011703482	-0.430181
C	 1.7557820372	-1.2174051997	 0.8022018157	-0.105597
O	 0.7903430737	-0.2093744103	 1.0455612763	-0.310593
H	 1.0743360532	 1.8652509432	-0.5670615009	 0.131154
H	-0.5363556122	 1.7834631798	-1.317919606	 0.107396
H	-0.395192289	 2.0742400752	 0.4237827975	 0.127053
H	-2.0850927013	-0.2240720561	-0.6827444824	 0.104554
H	-1.3841524333	-1.5637831434	 0.2465271501	 0.073601
H	-1.2486272113	 0.0426793716	 1.9767618337	 0.287334
H	 0.1402509849	-1.7201788452	-1.4676561771	 0.100566
H	 0.7936267942	-0.248040618	-2.2083850313	 0.122869
H	 2.4713074493	-2.0841490574	-1.0789028691	 0.068348
H	 3.759958276	-0.167180777	-0.5160100252	 0.284
H	 1.3696894178	-2.2201066589	 1.0505714027	 0.088847
H	 2.627321193	-1.0242954189	 1.438803618	 0.098049
63.6228	125.4451	142.5066	231.327	249.5652	290.4228	308.6433	339.4452	389.111	402.6639	442.9495	490.6043	509.8093	666.9675	766.5166	795.9751	856.1029	872.9097	902.6702	934.4637	955.0245	985.2805	1018.9954	1058.5284	1078.5846	1097.8762	1143.4423	1178.76	1192.3911	1217.2221	1235.7882	1251.8248	1295.835	1331.815	1354.5481	1377.0348	1383.2759	1404.8832	1416.6218	1436.023	1475.61	1490.6957	1493.5825	1500.5311	1512.3827	2953.8604	2964.2422	3003.9838	3044.1824	3055.3473	3056.061	3065.2907	3117.6234	3125.4775	3144.2546	3775.0676	3819.1634
CC1(CO)CC(O)CO1	C[C@@]1(CO)C[C@@H](O)CO1	
InChI=1S/C6H12O3/c1-6(4-7)2-5(8)3-9-6/h5,7-8H,2-4H2,1H3	InChI=1S/C6H12O3/c1-6(4-7)2-5(8)3-9-6/h5,7-8H,2-4H2,1H3/t5-,6+/m1/s1
