22
gdb 8955	3.66072	1.13251	0.91983	2.2885	75.28	-0.2491	0.0769	0.326	1310.7419	0.197195	-387.329787	-387.319149	-387.318205	-387.365425	37.591	
C	 0.0568393945	 1.3517850021	-0.0630744624	-0.236946
O	-0.0150575607	-0.0482112146	 0.0527184742	-0.245662
C	-1.3341107078	-0.5881992165	 0.0210811031	 0.141062
C	-1.8317018882	-0.6914770892	-1.4246390781	-0.410993
C	-1.2615512378	-1.9368966439	 0.7617697671	 0.028097
C	-0.7890140357	-1.7457640032	 2.20916247	-0.398836
C	-2.5961305991	-2.686401026	 0.720464149	-0.088723
O	-2.4312077418	-3.9195076746	 1.4080560986	-0.42138
H	 1.1090714515	 1.6293391637	 0.0411040247	 0.126004
H	-0.301286951	 1.7203237262	-1.0361181241	 0.103092
H	-0.5214757187	 1.8562094787	 0.7272003325	 0.102807
H	-2.0057782513	 0.0837188069	 0.5849460085	 0.057768
H	-1.247480876	-1.4327868861	-1.97927827	 0.123426
H	-2.8872966115	-0.9744439242	-1.4692223608	 0.116049
H	-1.733672649	 0.2695657078	-1.937588668	 0.11471
H	-0.523538591	-2.5536044527	 0.2308713547	 0.087503
H	-1.5045241812	-1.1321225195	 2.7716663147	 0.097251
H	-0.7074703686	-2.7098195932	 2.7137578099	 0.130043
H	 0.1794022448	-1.2438103715	 2.2305895514	 0.124074
H	-3.3793515572	-2.0704876639	 1.1964232177	 0.079211
H	-2.9044390579	-2.8672320606	-0.318715005	 0.086025
H	-3.2694565862	-4.3892806356	 1.3834705222	 0.285418
61.9045	78.8968	101.2132	164.738	203.6195	219.8638	240.5234	249.2171	300.1582	301.215	356.4543	393.6538	418.9331	504.8521	556.7511	821.8408	862.6804	924.1937	930.9084	984.5895	1034.6535	1065.4909	1106.8365	1118.8771	1146.344	1171.5939	1181.5376	1194.8868	1214.581	1258.9185	1274.8471	1311.4268	1352.8638	1374.7309	1390.6835	1398.2149	1407.0535	1460.1231	1478.0176	1484.7274	1492.1613	1501.1638	1502.1602	1502.7725	1512.1767	1523.9449	2939.7948	2950.1013	2973.7082	3008.0423	3018.5297	3024.1361	3034.0968	3041.3157	3107.4152	3110.9893	3113.7844	3114.544	3149.6511	3835.3813
COC(C)C(C)CO	CO[C@@H](C)[C@@H](C)CO	
InChI=1S/C6H14O2/c1-5(4-7)6(2)8-3/h5-7H,4H2,1-3H3	InChI=1S/C6H14O2/c1-5(4-7)6(2)8-3/h5-7H,4H2,1-3H3/t5-,6-/m0/s1
