21
gdb 108584	2.45209	1.42629	1.21467	1.876	77.78	-0.2329	0.0743	0.3072	1158.4055	0.182748	-424.217787	-424.208892	-424.207948	-424.251224	34.2	
C	-0.1002152094	 1.5015678698	-0.3198861243	-0.377712
C	-0.1698070907	 0.0923489456	 0.2806059722	-0.264005
C	-1.4805318399	-0.5986174457	 0.0114869044	 0.377131
O	-2.6285242061	 0.0675621795	 0.5216258702	-0.318146
C	-3.3202971704	-0.8375538279	 1.3990740005	-0.085735
C	-3.0733786129	-2.2496245154	 0.8341575122	-0.25181
C	-1.7482543473	-2.0848365197	 0.0953571771	-0.183007
C	-1.8155910212	-1.3571800457	-1.2467917907	 0.066703
O	-3.0380473877	-1.1312465765	-1.8699281238	-0.431612
H	 0.8554355497	 1.9806352082	-0.0871159497	 0.109341
H	-0.2073612389	 1.4708925304	-1.4091740747	 0.118994
H	-0.9029607131	 2.1278154638	 0.078920822	 0.132271
H	 0.6356551806	-0.5314588917	-0.125631714	 0.097782
H	-0.0088459856	 0.1407841136	 1.3657060581	 0.098447
H	-2.9129486394	-0.7443021847	 2.4160237791	 0.100736
H	-4.3718937097	-0.5385995326	 1.4173218332	 0.109015
H	-3.008241346	-2.9989927751	 1.6263653828	 0.104508
H	-3.8706584332	-2.5439955688	 0.1447600007	 0.121597
H	-0.9427528279	-2.7902028453	 0.2659047919	 0.088874
H	-1.0165993927	-1.559066459	-1.9557781208	 0.094466
H	-3.4396531981	-0.3921299428	-1.3900839365	 0.292163
86.3331	145.0328	146.2697	199.611	221.866	273.3176	327.4039	366.5819	461.9064	543.3286	582.3303	631.5852	676.4535	739.9468	780.2575	830.1855	855.8998	907.9188	936.8597	955.5374	988.017	1002.6837	1044.0153	1064.7785	1074.8177	1109.9393	1126.5927	1159.7371	1201.8988	1218.1048	1230.8267	1254.554	1304.2418	1321.4969	1324.6979	1356.5929	1380.3579	1394.0049	1407.4991	1458.5414	1474.1074	1488.8145	1496.4834	1509.6582	1518.1793	3001.5266	3018.8148	3039.3819	3056.6375	3057.8898	3091.2072	3107.0481	3110.4973	3119.9872	3139.9088	3172.9701	3722.0772
CCC12OCCC1C2O	CC[C@]12OCC[C@H]1[C@H]2O	
InChI=1S/C7H12O2/c1-2-7-5(6(7)8)3-4-9-7/h5-6,8H,2-4H2,1H3	InChI=1S/C7H12O2/c1-2-7-5(6(7)8)3-4-9-7/h5-6,8H,2-4H2,1H3/t5-,6+,7-/m0/s1
