17
gdb 19374	3.95619	1.84238	1.58672	1.717	66.91	-0.2256	0.0645	0.2901	852.6699	0.142572	-363.766442	-363.75939	-363.758446	-363.797604	27.872	
O	-0.0779846937	 1.3885388095	 0.1286826667	-0.416625
C	 0.0088425735	-0.0176053387	-0.0289940848	-0.149874
C	-1.3384632371	-0.669404987	 0.0885746661	 0.282066
C	-1.8476472375	-1.6971194696	-0.8428042183	-0.295445
N	-2.4001945188	-0.3290382648	-0.9389109324	-0.193575
C	-3.3445174325	-0.0581934415	 0.2195802603	 0.006837
C	-3.5528314873	-1.1403142641	 1.2421281785	-0.310423
C	-2.2870102243	-0.3287787204	 1.2610335802	-0.107848
H	-0.735289592	 1.6859225494	-0.5123569337	 0.291821
H	 0.461037333	-0.2898244129	-0.9953400534	 0.091047
H	 0.6767581593	-0.374456932	 0.7640711597	 0.111825
H	-1.2198021212	-1.9356154883	-1.6969994712	 0.122596
H	-2.4665065534	-2.5239598616	-0.515071599	 0.121782
H	-4.0242086994	 0.7753803555	 0.0984933734	 0.103571
H	-4.2636052734	-0.8502086588	 2.0107593912	 0.12046
H	-3.5818785238	-2.2009283116	 1.0188936332	 0.115176
H	-1.9742052715	 0.2821348867	 2.0961446436	 0.10661
90.0541	157.6172	258.8542	331.0513	448.7039	458.1716	487.4374	575.5289	607.4783	693.4426	732.818	778.42	847.5713	915.3387	925.2181	945.6832	958.8845	980.8041	1024.7028	1060.4831	1065.3244	1070.4425	1090.4197	1116.515	1132.5904	1176.0544	1200.8383	1237.4715	1308.4687	1316.2288	1363.9951	1397.8273	1431.7485	1475.9688	1490.9985	1522.6793	2985.3997	3059.9371	3122.5466	3134.3725	3190.7441	3200.183	3212.3955	3215.9461	3784.6339
OCC12CN1C1CC21	OC[C@]12CN1[C@H]1C[C@@H]21	
InChI=1S/C6H9NO/c8-3-6-2-7(6)5-1-4(5)6/h4-5,8H,1-3H2	InChI=1S/C6H9NO/c8-3-6-2-7(6)5-1-4(5)6/h4-5,8H,1-3H2/t4-,5+,6+,7?/m1/s1
