14
gdb 125769	3.26886	1.45896	1.01515	3.86	68.04	-0.2471	-0.0551	0.192	1096.1808	0.100215	-470.028008	-470.019685	-470.01874	-470.06106	30.162	
C	-0.0303320241	 1.4821562018	 0.0282817153	-0.46021
C	-0.0134047621	-0.0125403076	-0.0140785662	 0.255992
N	-0.0572808123	-0.5678916048	-1.1689469756	-0.139305
O	-0.040933446	-1.9829202243	-1.1735651262	-0.261416
C	 0.0127801175	-2.6451176793	-0.0008328774	 0.535013
N	-0.0141656471	-3.9776264316	-0.1991384229	-0.550163
N	 0.0663154075	-2.1386769617	 1.189706319	-0.396424
C	 0.0570069184	-0.7655537574	 1.2853207345	 0.333868
O	 0.1042479984	-0.1558363149	 2.3339304865	-0.34368
H	 0.8643667872	 1.844613717	 0.5430106463	 0.158077
H	-0.0793961716	 1.8978245007	-0.978844005	 0.141195
H	-0.886207866	 1.8226223673	 0.6186130988	 0.158085
H	 0.0846697056	-4.3503037006	-1.1272106896	 0.281573
H	 0.1393271045	-4.5676134045	 0.6003211424	 0.287396
69.9757	157.8476	173.3138	204.6327	283.8985	325.2931	354.4382	395.7648	488.3792	513.2199	559.1478	568.9117	711.1061	748.8209	794.1017	803.5734	891.763	973.6462	1040.5801	1052.6074	1108.5317	1234.6102	1361.0512	1407.307	1419.0002	1461.2938	1464.2799	1586.9321	1659.1395	1686.1286	1790.8811	3052.639	3114.221	3154.2181	3621.5379	3756.723
CC1=NOC(N)=NC1=O	Cc1noc(N)nc1=O	
InChI=1S/C4H5N3O2/c1-2-3(8)6-4(5)9-7-2/h1H3,(H2,5,6,8)	InChI=1S/C4H5N3O2/c1-2-3(8)6-4(5)9-7-2/h1H3,(H2,5,6,8)
