16
gdb 48247	2.37663	1.31371	0.96525	1.9065	66.9	-0.2691	-0.0464	0.2227	1198.422	0.123993	-475.035388	-475.026992	-475.026048	-475.069335	29.366	
O	-0.0305728208	-0.084101946	-0.1717765895	-0.304465
C	-0.0463982312	 1.1193395387	-0.0948489107	 0.167347
N	 1.1065486746	 1.9016779946	 0.0332561441	-0.118314
C	 0.9921230701	 3.2914392756	 0.1156848298	 0.158625
O	-0.0499296291	 3.8968113672	 0.0850128269	-0.302387
C	 2.4087751742	 1.2476208016	 0.0782404701	-0.029766
C	 3.5035746679	 1.822569175	-0.8504219336	-0.096553
O	 4.2165052421	 2.3815584303	 0.2730525283	-0.268761
C	 3.3652863214	 1.6889728138	 1.2104331246	-0.096554
H	-0.9529789335	 1.7381172937	-0.1155305741	 0.144771
H	 1.9760259084	 3.7825064251	 0.213529494	 0.126445
H	 2.2127110484	 0.1811468535	-0.0040526274	 0.141944
H	 4.092240696	 1.0582630155	-1.3723779638	 0.119903
H	 3.1851305988	 2.586526172	-1.5683041489	 0.118931
H	 2.9475823181	 2.3570397781	 1.9717487901	 0.118931
H	 3.8858463945	 0.8588719912	 1.70346477	 0.119903
68.3296	87.3852	137.8042	238.0011	242.7177	245.2398	295.2106	374.9479	460.4578	590.6258	690.8275	814.5156	851.0072	857.7549	958.2494	1032.1171	1044.9146	1053.8775	1063.3436	1067.3925	1090.0022	1155.9691	1168.844	1249.4584	1260.0823	1268.3537	1305.8221	1369.8292	1410.3102	1436.1967	1464.1932	1508.5061	1532.9224	1798.8268	1825.189	2990.2216	3018.6322	3028.9742	3067.9121	3074.5232	3074.658	3152.405
O=CN(C=O)C1COC1	O=CN(C=O)C1COC1	
InChI=1S/C5H7NO3/c7-3-6(4-8)5-1-9-2-5/h3-5H,1-2H2	InChI=1S/C5H7NO3/c7-3-6(4-8)5-1-9-2-5/h3-5H,1-2H2
