16
gdb 40640	3.42201	1.40986	1.30261	1.2581	66.49	-0.2514	0.0065	0.2579	992.6209	0.125538	-437.843836	-437.836742	-437.835798	-437.876081	26.8	
C	-0.3658137523	 0.9210233906	-0.4867755618	-0.171047
O	 0.576245857	 1.3217483533	 0.5047158944	-0.238219
C	 0.4672787629	-0.0737549441	 0.2083552332	 0.055325
C	-0.0387040328	-0.9282747801	 1.3309624377	-0.10314
C	-1.4488678301	-1.4486395878	 1.4507002849	 0.026105
O	-2.2336797705	-1.4653921774	 0.266508489	-0.20343
C	-1.5778993041	-2.3009635964	-0.5838260706	 0.103866
N	-0.5266332053	-2.8893871112	-0.1781591291	-0.252461
C	-0.3052677922	-2.4144960531	 1.1715664662	-0.061768
H	-1.4120975262	 1.026097994	-0.2102427281	 0.126648
H	-0.1194922011	 1.2045096288	-1.50947081	 0.114715
H	 1.3252409385	-0.4782073214	-0.3290986778	 0.108984
H	 0.3956530042	-0.6701038451	 2.2937059406	 0.117887
H	-2.0437022249	-1.3509774531	 2.3489542996	 0.119895
H	-2.0286401897	-2.3964484417	-1.5637569166	 0.148064
H	 0.1113836467	-3.1257107455	 1.8739672185	 0.108576
57.3989	144.8364	161.8162	325.8545	345.8472	465.9609	608.1965	683.8869	747.582	757.1708	805.3476	850.5979	869.0709	882.9359	942.0555	949.942	987.6015	1004.1328	1050.5322	1068.3324	1089.237	1102.4006	1113.3955	1127.9474	1157.3098	1168.5119	1198.2345	1287.6555	1295.395	1326.7961	1350.5393	1400.2518	1431.2862	1527.5303	1668.3231	3088.5866	3107.7823	3144.305	3183.1318	3186.6571	3205.9747	3234.388
C1OC1C1C2OC=NC12	C1O[C@H]1[C@H]1[C@H]2OC=N[C@@H]12	
InChI=1S/C6H7NO2/c1-3(8-1)4-5-6(4)9-2-7-5/h2-6H,1H2	InChI=1S/C6H7NO2/c1-3(8-1)4-5-6(4)9-2-7-5/h2-6H,1H2/t3-,4-,5+,6-/m1/s1
