17
gdb 31073	2.26511	1.48254	0.90624	1.3243	73.08	-0.1736	0.0559	0.2296	1253.9094	0.135526	-455.185322	-455.175931	-455.174987	-455.220002	33.374	
C	 0.0067348132	 1.4406478909	 0.0940337042	-0.231028
O	-0.0093902203	 0.0215660615	 0.039925416	-0.27842
C	 0.6352410754	-0.6198059546	 1.040258687	 0.30907
C	 0.730768646	-1.9794108123	 1.1629498367	 0.175234
C	 0.2192090873	-3.1039484983	 0.3362596794	-0.512581
N	 1.482547816	-2.1459094725	 2.341296063	-0.365848
C	 1.7647425364	-0.9138431799	 2.809713597	 0.443437
O	 2.481304516	-0.7664354111	 3.9389916931	-0.427281
N	 1.2779990354	 0.0463999824	 2.0640073197	-0.45473
H	 1.0293646049	 1.8315262607	 0.0548776348	 0.124902
H	-0.553398083	 1.7793886892	-0.7796207557	 0.120998
H	-0.4691448062	 1.8122047483	 1.0081329393	 0.124899
H	 1.0226801363	-3.73861804	-0.0612385815	 0.120182
H	-0.4705062936	-3.7570530208	 0.8877411046	 0.120197
H	-0.3271320487	-2.6920003398	-0.5153797965	 0.1508
H	 1.7617912327	-3.0148946447	 2.7627000419	 0.267531
H	 2.561559582	 0.1842932609	 4.084325057	 0.312639
40.377	142.1044	157.9931	186.4054	189.1308	255.1223	258.815	324.3972	385.8066	404.71	452.9802	571.9206	619.0286	633.2501	684.8269	729.3226	833.8977	987.3362	1061.5364	1066.6351	1078.6111	1179.9214	1182.1848	1198.6866	1211.2041	1247.121	1324.1774	1411.2713	1431.7888	1479.2451	1481.6941	1489.4406	1497.9422	1506.1888	1573.2761	1625.5914	1683.8663	3002.9158	3025.1206	3040.7653	3087.619	3124.4584	3132.673	3677.6777	3809.873
COC1=C(C)NC(O)=N1	COc1c(C)[nH]c(O)n1	
InChI=1S/C5H8N2O2/c1-3-4(9-2)7-5(8)6-3/h1-2H3,(H2,6,7,8)	InChI=1S/C5H8N2O2/c1-3-4(9-2)7-5(8)6-3/h1-2H3,(H2,6,7,8)
