20
gdb 59148	3.18676	1.30799	1.15329	1.4905	78.05	-0.223	0.0547	0.2778	1146.9972	0.169909	-403.041508	-403.032711	-403.031766	-403.074981	33.865	
C	 0.974260067	 0.9971268877	 1.0244054154	-0.405453
C	-0.0148031889	 0.1552345206	 0.2162318125	 0.10669
O	-1.2251034427	 0.8869504955	 0.0273699182	-0.439396
C	 0.6180638962	-0.2609874582	-1.1139825369	-0.023741
C	 0.7578771863	-1.581670792	-1.7535255545	-0.061577
C	-0.4445829683	-2.5418980243	-1.7439202966	-0.08513
C	-1.7026908482	-1.9877904515	-1.1146310448	-0.303056
C	-1.2267619851	-1.4425743876	-2.4217891166	-0.000794
N	-0.0386626865	-0.4912647236	-2.4453301803	-0.200644
H	 1.8831429003	 0.4273185293	 1.2472573911	 0.113457
H	 1.2551606041	 1.8994831249	 0.4708126534	 0.118178
H	 0.5152779877	 1.302644068	 1.9681080616	 0.124707
H	-0.2616841767	-0.7320196788	 0.809830457	 0.089561
H	-1.2801268997	 1.1228408633	-0.9044097806	 0.297002
H	 1.483354643	 0.3657742323	-1.335734538	 0.104619
H	 1.7056770443	-1.9060236466	-2.1756365424	 0.098344
H	-0.347516189	-3.5817232678	-2.0247477653	 0.097165
H	-2.544989998	-2.6647575487	-1.2359281603	 0.114527
H	-1.7526023175	-1.3976159047	-0.2137704692	 0.15026
H	-1.8160399685	-1.4546045477	-3.3295715837	 0.105282
68.2652	114.1653	159.5135	196.5094	258.0684	303.0069	328.1659	395.1473	456.7299	575.1637	618.4043	668.1518	694.2997	736.3246	770.2797	862.331	881.1396	907.7179	926.5792	959.5706	988.5418	1018.0973	1039.7174	1058.146	1060.7688	1066.3611	1076.8186	1109.947	1129.2455	1157.2884	1196.576	1265.1543	1267.1073	1284.2808	1339.9372	1364.8206	1387.1091	1403.7434	1416.5747	1447.959	1487.9837	1494.1659	1500.8614	3031.6105	3033.1724	3090.4883	3103.7215	3122.3611	3137.4165	3137.9277	3191.2538	3206.1294	3267.1189	3819.6006
CC(O)C1C2C3CC3N12	C[C@@H](O)[C@H]1[C@H]2[C@H]3C[C@H]3N12	
InChI=1S/C7H11NO/c1-3(9)6-7-4-2-5(4)8(6)7/h3-7,9H,2H2,1H3	InChI=1S/C7H11NO/c1-3(9)6-7-4-2-5(4)8(6)7/h3-7,9H,2H2,1H3/t3-,4+,5-,6+,7-,8?/m1/s1
