17
gdb 18518	6.03102	1.16393	1.12667	2.1228	72.61	-0.2481	0.0223	0.2704	1122.0111	0.141766	-363.829725	-363.821999	-363.821055	-363.862734	28.334	
C	-0.1574075128	 0.3829685099	 1.0718369475	-0.359457
C	 0.2692960198	 0.386610814	-0.3973681726	-0.15181
N	 0.5637148106	-0.9734750607	-0.8413717463	-0.345849
C	 1.6954633572	-1.2444460704	-1.2919856024	 0.486342
O	 2.8150615433	-0.414645754	-1.5047894501	-0.286815
C	 3.4944763033	-1.5122869684	-2.1617503046	 0.099047
C	 3.7273503693	-2.6104224875	-1.190310397	-0.290263
C	 2.354996765	-2.4572122621	-1.8591868856	-0.228802
H	-1.0044260371	-0.2919982275	 1.2238308741	 0.125271
H	 0.6623475185	 0.0463895041	 1.7141751826	 0.117016
H	-0.4499864571	 1.3888022354	 1.3894662474	 0.109043
H	-0.5609393017	 0.7580548524	-1.0110513076	 0.106824
H	 1.1161766096	 1.0688706969	-0.5451001003	 0.111257
H	 4.0354251421	-1.290888686	-3.0711591215	 0.124217
H	 4.300702847	-3.4577829336	-1.554099828	 0.127524
H	 3.8543317239	-2.3780093744	-0.1377460149	 0.133538
H	 1.887578309	-3.237466378	-2.4408535407	 0.122917
32.4671	110.734	180.5469	225.2583	274.8424	400.0645	456.2625	506.1583	688.9374	718.7035	782.7421	810.8751	830.6949	871.0252	914.6843	952.8476	969.9857	1014.8694	1037.1129	1042.6653	1068.9014	1081.8634	1103.6207	1123.1021	1174.1674	1195.4021	1287.0216	1306.8368	1332.3487	1378.9213	1404.8977	1473.9322	1488.7389	1494.5076	1512.4597	1851.6481	3014.2631	3038.3894	3051.1141	3109.5944	3118.8708	3125.1453	3215.0174	3219.6004	3236.2139
CCN=C1OC2CC12	CCN=C1O[C@H]2C[C@@H]12	
InChI=1S/C6H9NO/c1-2-7-6-4-3-5(4)8-6/h4-5H,2-3H2,1H3	InChI=1S/C6H9NO/c1-2-7-6-4-3-5(4)8-6/h4-5H,2-3H2,1H3/t4-,5+/m1/s1
