19
gdb 98888	3.29971	1.01518	0.95807	3.6575	72.01	-0.2408	-0.0225	0.2183	1334.9431	0.157791	-460.179064	-460.169514	-460.168569	-460.215902	32.751	
C	-0.3355002398	 1.4242194165	-0.2118481386	-0.387108
C	-0.3507414619	-0.011145447	-0.7288968261	-0.281564
C	 0.9847526292	-0.4672593373	-1.2771604104	 0.372605
O	 1.9790979376	 0.2163908394	-1.2953694971	-0.301968
C	 1.0413298488	-1.9070790956	-1.8303833645	 0.13375
O	 0.6628998833	-2.8372343296	-0.8262873984	-0.276601
C	-0.2678670407	-3.759883553	-1.3968974888	-0.08856
C	-0.2467410126	-3.4149883479	-2.8902550279	-0.104371
O	 0.1205734582	-2.0395518851	-2.884938608	-0.257337
H	 0.3988816862	 1.5437724442	 0.5889332275	 0.131605
H	-0.0653382577	 2.1242129284	-1.0068906555	 0.13086
H	-1.3186396746	 1.7048986361	 0.1759343651	 0.109793
H	-0.6344623205	-0.7240212092	 0.0558474667	 0.136047
H	-1.0924462622	-0.152289738	-1.5252394888	 0.134115
H	 2.0713484289	-2.1136810945	-2.1634794152	 0.085369
H	 0.0579508677	-4.7837937285	-1.189021517	 0.116913
H	-1.2595530406	-3.6039227418	-0.9549908092	 0.110984
H	 0.5002919211	-4.0138513904	-3.4307189152	 0.109971
H	-1.2144539905	-3.5118036367	-3.3855420886	 0.125499
23.5287	40.7194	61.9022	158.6993	179.5913	213.7185	238.0319	295.1155	421.5647	556.844	653.3994	672.0789	729.0104	778.0449	799.6548	891.7777	949.8819	969.3932	996.7171	1007.9015	1053.9961	1088.2448	1093.0792	1121.4985	1155.3254	1200.44	1222.051	1245.1104	1264.0991	1330.5866	1368.7201	1372.2058	1380.4525	1386.681	1415.7488	1455.8548	1494.3123	1498.7918	1510.6069	1527.299	1826.1068	2981.488	3005.5438	3027.1678	3036.1595	3050.633	3064.1592	3081.2972	3119.92	3121.7342	3125.3455
CCC(=O)C1OCCO1	CCC(=O)C1OCCO1	
InChI=1S/C6H10O3/c1-2-5(7)6-8-3-4-9-6/h6H,2-4H2,1H3	InChI=1S/C6H10O3/c1-2-5(7)6-8-3-4-9-6/h6H,2-4H2,1H3
