19
gdb 38335	3.84351	1.39842	1.16795	2.0307	81.59	-0.2343	0.0204	0.2547	1079.8948	0.160626	-385.829159	-385.821917	-385.820973	-385.861377	29.11	
C	-0.0155449452	 1.6806380671	 0.106818029	-0.235653
C	 1.4537538418	 1.2194672284	-0.0309699565	-0.008908
O	 1.2157069589	 0.24785775	 1.062039068	-0.316746
C	 0.0444669298	 0.1366355139	 0.1613799528	-0.008891
C	 1.0226019767	 0.1218924232	-1.0621924503	 0.381077
C	 0.5508598014	 0.4814167491	-2.4953670843	-0.334512
C	 1.2157772131	-0.5554608332	-3.4453955123	-0.274966
C	 2.0175709186	-1.4329811826	-2.5174814746	-0.076972
C	 1.9120099083	-1.0675949715	-1.2414052366	-0.146821
H	-0.2535971075	 2.1592764366	 1.0571809823	 0.106709
H	-0.5000804204	 2.1597140166	-0.7464109526	 0.100862
H	 2.3756483482	 1.8030153505	 0.0087884122	 0.090587
H	-0.7301353751	-0.5833446415	 0.4326982728	 0.090593
H	-0.5393535486	 0.4408259231	-2.571008391	 0.108031
H	 0.8442931616	 1.5011049281	-2.7601292433	 0.108057
H	 0.4728347893	-1.1347887873	-4.0080977244	 0.107247
H	 1.8528865481	-0.0751375943	-4.1987683709	 0.107234
H	 2.6091904347	-2.2675939602	-2.8785292415	 0.093506
H	 2.3930091063	-1.5428654159	-0.3969179288	 0.109565
40.1522	195.4896	240.0512	268.9289	420.4923	478.0327	519.751	640.4042	689.7611	757.6703	770.7616	799.1217	809.0358	844.715	882.8657	898.8655	914.4134	929.0081	987.7028	996.0275	1020.9728	1023.8349	1067.2733	1078.1519	1118.5465	1129.2951	1165.791	1180.5455	1183.6273	1204.3739	1212.1614	1262.5619	1272.5317	1275.7795	1296.7093	1327.2922	1389.533	1480.2233	1488.3357	1503.4918	1688.2826	3019.7702	3040.7978	3056.2479	3070.9159	3095.0241	3096.711	3104.886	3150.8616	3187.0011	3232.0079
C1C2OC1C21CCC=C1	C1[C@H]2O[C@@H]1[C@]12CCC=C1	
InChI=1S/C8H10O/c1-2-4-8(3-1)6-5-7(8)9-6/h1,3,6-7H,2,4-5H2	InChI=1S/C8H10O/c1-2-4-8(3-1)6-5-7(8)9-6/h1,3,6-7H,2,4-5H2/t6-,7+,8+
