20
gdb 94043	3.13118	0.99151	0.798	5.1761	79.83	-0.266	0.0358	0.3018	1447.0265	0.171356	-403.183281	-403.174064	-403.173119	-403.218345	33.427	
C	 0.0289578093	 1.5142588182	 0.3190718619	-0.410343
C	 0.113033614	 0.0177802133	 0.0834491122	 0.156171
C	 0.8808228329	-0.4191793876	-1.183840396	-0.232425
C	 1.5658957461	-1.7433510264	-0.7641835999	-0.260951
C	 1.1934645586	-1.8828332465	 0.7324284429	 0.151428
C	 2.3384596279	-2.3860448991	 1.6175967797	-0.370582
C	 1.9439467953	-2.5772030131	 3.0119773473	 0.272252
N	 1.6324622715	-2.7462143078	 4.1114693778	-0.306984
O	 0.8313660619	-0.5841385077	 1.1596998772	-0.264612
H	 1.0324802256	 1.9483684542	 0.3678746274	 0.122807
H	-0.5209026609	 1.997160487	-0.4945021059	 0.118469
H	-0.4866317359	 1.7294951776	 1.2587029796	 0.132753
H	-0.9040461992	-0.4095858297	 0.0548374594	 0.068518
H	 0.2154309884	-0.5386224386	-2.0421345085	 0.10715
H	 1.6263091455	 0.3370073496	-1.4466328502	 0.107585
H	 1.2194877631	-2.6042837967	-1.3408328636	 0.110896
H	 2.6511519781	-1.6815313094	-0.8889853719	 0.107323
H	 0.3331572725	-2.5634001538	 0.8396900511	 0.083449
H	 2.7110319721	-3.3391871827	 1.2264226602	 0.151575
H	 3.162175473	-1.6650992008	 1.5741575592	 0.15552
43.5386	73.5198	121.0907	139.8975	221.8184	273.0462	348.3033	393.9182	410.984	459.838	516.2567	599.8386	669.6109	818.695	829.3229	873.0408	917.0719	938.0993	942.156	989.6614	1003.7512	1066.5198	1100.7756	1119.081	1135.2728	1164.9218	1201.4592	1249.6233	1266.2194	1282.2732	1304.0039	1323.2694	1349.2244	1382.7891	1387.3702	1405.3667	1425.9541	1451.7617	1482.8726	1488.1938	1498.7765	1509.0347	2366.6016	2952.1119	2969.0875	3041.8177	3047.4592	3053.5532	3064.6526	3092.7699	3096.6467	3113.8667	3117.0911	3122.8289
CC1CCC(CC#N)O1	C[C@H]1CC[C@@H](CC#N)O1	
InChI=1S/C7H11NO/c1-6-2-3-7(9-6)4-5-8/h6-7H,2-4H2,1H3	InChI=1S/C7H11NO/c1-6-2-3-7(9-6)4-5-8/h6-7H,2-4H2,1H3/t6-,7-/m0/s1
