20
gdb 79785	3.71529	1.66595	1.54044	1.6524	80.67	-0.2216	0.0788	0.3004	945.9382	0.174305	-365.950048	-365.943507	-365.942563	-365.980601	27.95	
C	-0.1884199964	 1.6065446572	-0.0330375178	-0.421198
C	 0.0279531598	 0.1005397084	 0.006057729	 0.015469
C	 1.1758276595	-0.5625877886	-0.8080946819	-0.067567
C	 2.4873394681	 0.0904220198	-0.3444599108	-0.060468
C	 3.4785249773	-1.0883779323	-0.2529937114	-0.18186
N	 2.6439048465	-1.6187725997	 0.8763281869	-0.152348
C	 2.2089813073	-0.1820599735	 1.1822523386	-0.005002
C	 0.7059413543	-0.5703584539	 1.2170971148	-0.071741
C	 1.252991334	-1.7015838233	 0.3050165447	-0.00782
H	 0.7264396538	 2.1523519861	 0.2192579141	 0.116823
H	-0.5095073536	 1.9356505301	-1.0276921423	 0.114959
H	-0.9617540453	 1.9098758151	 0.6813386997	 0.114689
H	-0.9120523451	-0.4231598578	-0.2067734728	 0.071482
H	 1.0689902132	-0.7827499117	-1.8703824123	 0.060127
H	 2.7556334721	 1.0648584463	-0.7538839636	 0.064674
H	 3.5874983765	-1.7545571745	-1.1161532828	 0.095849
H	 4.4662333278	-0.8063938014	 0.1238205069	 0.103502
H	 2.7381989312	 0.3658852881	 1.9607347858	 0.072325
H	 0.2224554092	-0.7270297796	 2.1799273313	 0.069088
H	 0.8033265493	-2.678885215	 0.1403810739	 0.069016
176.3795	205.7499	247.7008	396.4462	504.4936	526.8021	672.2516	706.1705	773.7967	789.9265	810.7949	829.7516	867.0726	871.6207	896.6026	920.6491	930.8269	942.6657	962.8836	996.2823	1014.3129	1039.9035	1051.1393	1071.943	1116.0306	1128.7137	1156.0207	1159.8789	1177.7464	1191.0948	1201.6837	1221.3819	1230.8571	1247.6697	1270.0228	1288.8227	1301.8447	1329.7962	1387.5809	1409.8338	1493.6424	1497.7597	1504.1067	3027.9699	3034.4426	3037.3165	3091.0087	3095.8028	3098.9612	3105.4976	3112.8536	3120.7603	3127.9706	3137.7999
CC1C2C3CN4C3C1C24	C[C@H]1[C@H]2[C@@H]3CN4[C@@H]3[C@@H]1[C@@H]24	
InChI=1S/C8H11N/c1-3-5-4-2-9-7(4)6(3)8(5)9/h3-8H,2H2,1H3	InChI=1S/C8H11N/c1-3-5-4-2-9-7(4)6(3)8(5)9/h3-8H,2H2,1H3/t3-,4-,5-,6+,7-,8+/m0/s1
