21
gdb 107672	3.16494	1.26765	1.07373	1.8464	78.36	-0.2455	0.0817	0.3272	1200.7873	0.183297	-424.203862	-424.195292	-424.194348	-424.236879	33.134	
C	 0.1116906058	 1.2908704452	 0.2999944987	-0.251198
O	-0.0647679023	 0.0134417915	-0.2810191833	-0.286813
C	-1.3405870148	-0.5338855555	-0.0909312991	 0.455265
C	-1.6073978454	-1.1721592283	 1.2482285451	-0.356351
C	-1.3515351847	-2.0315068432	 0.0200234944	-0.116718
C	-2.4919137934	-2.8110198413	-0.6317328281	-0.103608
O	-3.2237678097	-2.0667504216	-1.5920289499	-0.23606
C	-3.6458249845	-0.8164950418	-1.0881396071	-0.097071
C	-2.4540682446	 0.1274454323	-0.8845855944	-0.280125
H	 1.1605941228	 1.5613765054	 0.1572236973	 0.126407
H	-0.5146408352	 2.0567649442	-0.1785099486	 0.108672
H	-0.1121939163	 1.2820010631	 1.3765578794	 0.105602
H	-0.8168030082	-1.11282597	 1.987720187	 0.11489
H	-2.6139001871	-1.1531140644	 1.6570648539	 0.108062
H	-0.373851625	-2.4981310287	-0.0276829705	 0.10163
H	-2.0942427358	-3.6743275603	-1.1717890609	 0.113023
H	-3.1806603423	-3.1905135259	 0.1422643652	 0.088144
H	-4.3366991647	-0.3991971062	-1.8261717734	 0.110262
H	-4.2081799063	-0.9483898867	-0.1473567338	 0.085623
H	-2.795205538	 1.0561214019	-0.4107697097	 0.094454
H	-2.0432410605	 0.3863508201	-1.8670711921	 0.11591
105.4736	132.3682	169.0813	193.7138	281.7699	347.4457	371.7777	372.7833	408.8786	518.3876	540.8969	638.7015	698.4915	794.3094	874.2937	898.755	916.3183	931.2486	980.8162	988.0453	1017.9489	1052.3856	1060.708	1112.1709	1121.0904	1133.8503	1164.12	1183.2284	1205.9308	1231.2246	1255.0288	1267.539	1303.6423	1325.2767	1366.091	1387.8884	1403.846	1420.9638	1472.142	1477.6734	1488.7293	1493.6911	1496.7429	1508.4328	1510.6425	2953.4722	2959.6043	2990.1048	3026.4007	3041.3796	3072.261	3084.7846	3087.6236	3115.9963	3117.8958	3171.7566	3212.4667
COC12CC1COCC2	CO[C@]12C[C@H]1COCC2	
InChI=1S/C7H12O2/c1-8-7-2-3-9-5-6(7)4-7/h6H,2-5H2,1H3	InChI=1S/C7H12O2/c1-8-7-2-3-9-5-6(7)4-7/h6H,2-5H2,1H3/t6-,7+/m0/s1
