19
gdb 128657	2.23817	1.49172	0.91041	1.7538	80.98	-0.2015	0.0354	0.2369	1301.6909	0.158724	-419.229513	-419.21959	-419.218646	-419.265918	34.048	
C	 0.1723424487	 1.3897368108	-0.0067931947	-0.231052
O	 0.1020816514	-0.0312584161	-0.0078707841	-0.267264
C	 0.6491749651	-0.6423419835	-1.0755754564	 0.410872
N	 1.2229713295	 0.0134116027	-2.0760518143	-0.382915
N	 1.6308614824	-0.968576282	-2.9207983291	 0.032723
C	 2.3104442073	-0.6194411447	-4.143849087	-0.314787
C	 1.3165666721	-2.2015939469	-2.4532074236	-0.104059
C	 0.6700086752	-2.0495673346	-1.2437766836	 0.057167
C	 0.1189450441	-3.0890972949	-0.320894301	-0.504765
H	 1.2125137161	 1.7323265227	-0.0299838417	 0.129092
H	-0.3481770092	 1.8101338295	-0.8740817638	 0.129091
H	-0.3104899437	 1.7154441547	 0.9159570524	 0.122684
H	 3.2342936166	-0.0728417165	-3.9299909067	 0.142036
H	 2.555056662	-1.5362100768	-4.6837363031	 0.134077
H	 1.6725947638	 0.0077969148	-4.7744642951	 0.142097
H	 1.5717525063	-3.0926111298	-3.0071029195	 0.127941
H	 0.5868044326	-3.0403124504	 0.6689747461	 0.13036
H	-0.9588590711	-2.9632888171	-0.1671968108	 0.130359
H	 0.2838414209	-4.0945644119	-0.7183158239	 0.116344
22.6951	69.6934	103.39	157.3627	181.2203	185.7014	243.2743	248.7997	360.6583	372.6306	560.1961	608.9127	610.8299	635.7441	729.8772	792.5361	841.7773	997.08	1026.4025	1061.2591	1066.829	1082.5427	1152.2722	1181.9615	1199.2219	1217.4614	1253.2892	1342.6694	1411.5525	1419.1754	1451.9612	1457.3262	1470.6831	1473.068	1478.696	1480.5035	1502.9066	1503.937	1531.1029	1562.2515	1633.598	3027.6367	3028.2838	3037.7076	3075.8653	3091.8901	3096.7275	3107.5733	3138.1932	3138.9053	3245.7383
COC1=NN(C)C=C1C	COc1nn(C)cc1C	
InChI=1S/C6H10N2O/c1-5-4-8(2)7-6(5)9-3/h4H,1-3H3	InChI=1S/C6H10N2O/c1-5-4-8(2)7-6(5)9-3/h4H,1-3H3
