23
gdb 114253	4.85017	0.82824	0.8216	1.0413	86.97	-0.2416	0.0869	0.3285	1533.5684	0.205475	-388.261515	-388.252252	-388.251307	-388.295882	35.199	
C	 0.148753253	 1.2536188988	 0.0004316329	-0.239835
O	-0.0444046997	-0.0546209191	 0.4867564189	-0.24006
C	-1.3128248224	-0.5739504332	 0.1887695352	 0.169199
C	-1.6132213037	-1.0557179089	-1.260585642	-0.345984
C	-2.2810553454	-2.3116809565	-0.6502359207	 0.383108
C	-3.8295274697	-2.4284306452	-0.5618844453	-0.273498
C	-3.6861126023	-3.9653917307	-0.7262824718	-0.207393
C	-2.2484079069	-3.7308367272	-1.2649361924	-0.288184
C	-1.5355645451	-2.0150046055	 0.6820189219	-0.324495
H	 1.1518699533	 1.5685346909	 0.298392944	 0.124628
H	 0.0746664833	 1.301424945	-1.0966324232	 0.106975
H	-0.5849122053	 1.9581060673	 0.4242639278	 0.101636
H	-2.0984448854	 0.1102356447	 0.5472238903	 0.061666
H	-2.2243504374	-0.4229074242	-1.9104185957	 0.089696
H	-0.6788484375	-1.3084235966	-1.7735600753	 0.102489
H	-4.3146544655	-2.0537138579	 0.344328548	 0.09315
H	-4.3155755062	-1.9714955409	-1.4303507025	 0.095605
H	-3.6809279222	-4.4805515355	 0.2381671083	 0.103143
H	-4.3974570587	-4.4703977909	-1.383701879	 0.094733
H	-2.2245651053	-3.6940763015	-2.3592909117	 0.097095
H	-1.4556526794	-4.4029095648	-0.9232997633	 0.092978
H	-0.5748137061	-2.5370103736	 0.7292290949	 0.107539
H	-2.0719840854	-2.1604940845	 1.6234138409	 0.09581
61.6913	94.4931	118.9478	182.172	236.1945	262.0048	326.9257	344.5103	428.9139	464.4309	510.4224	663.4357	716.5186	776.9616	842.0591	855.8201	878.6284	898.9907	934.5272	938.5949	966.1842	991.2369	1019.1081	1054.0573	1084.5417	1130.7132	1158.7037	1183.7385	1184.6094	1191.208	1194.0972	1217.4743	1236.025	1250.8595	1256.0054	1259.6012	1281.1209	1286.5487	1299.1523	1312.7682	1391.5376	1464.4477	1473.4309	1480.1019	1484.2291	1485.9843	1495.3362	1506.5515	1509.474	2966.8315	2975.1934	3018.2565	3038.4605	3039.889	3043.501	3052.5932	3060.3035	3086.899	3091.2507	3098.8073	3108.1338	3112.2003	3115.691
COC1CC2(CCC2)C1	COC1CC2(CCC2)C1	
InChI=1S/C8H14O/c1-9-7-5-8(6-7)3-2-4-8/h7H,2-6H2,1H3	InChI=1S/C8H14O/c1-9-7-5-8(6-7)3-2-4-8/h7H,2-6H2,1H3
