16
gdb 25717	2.65053	1.54838	0.98933	2.3461	74.6	-0.2534	-0.0571	0.1963	1150.9152	0.123326	-437.952638	-437.943945	-437.943001	-437.986605	30.574	
C	-0.0006774239	 1.5594503929	-0.1155874904	-0.483903
C	 0.0024392363	 0.0545580628	 0.0699475415	 0.301204
O	 0.0077752279	-0.4652500675	 1.1710621019	-0.315421
C	-0.0008854218	-0.7678737648	-1.1434345912	 0.169856
C	 0.0009976631	-2.1185806969	-1.3776970211	 0.190649
C	 0.006844238	-3.2468200076	-0.4072005046	-0.502636
N	-0.0037113298	-2.3306106251	-2.7491039601	-0.299372
C	-0.0081906522	-1.1409309144	-3.2624182665	 0.069092
O	-0.0068736443	-0.1367238096	-2.373678921	-0.176416
H	 0.8773173826	 1.8789124064	-0.6866180208	 0.145989
H	-0.8803026095	 1.8759923727	-0.685629577	 0.145893
H	-0.0006462132	 2.0353087698	 0.8651691671	 0.142983
H	-0.8749228816	-3.8789586134	-0.5571988488	 0.143441
H	 0.8853683961	-3.8803358648	-0.5695371621	 0.143398
H	 0.0138787524	-2.8680853631	 0.6141991896	 0.166673
H	-0.0126957001	-0.8683123072	-4.3069086567	 0.158571
72.1606	107.1319	118.8516	173.5963	182.6273	283.4015	299.3318	413.0478	485.7253	563.4472	638.046	660.6474	688.2641	717.9639	869.5992	936.3159	964.6621	991.9121	1042.3001	1068.854	1091.2539	1132.1097	1174.1352	1272.4379	1314.0363	1367.863	1385.7973	1410.4259	1460.7696	1471.429	1473.8372	1489.3233	1535.7592	1626.6633	1764.0446	3042.6363	3044.3641	3095.1551	3106.6426	3159.4722	3167.2666	3270.3733
CC(=O)C1=C(C)N=CO1	CC(=O)c1c(C)nco1	
InChI=1S/C6H7NO2/c1-4-6(5(2)8)9-3-7-4/h3H,1-2H3	InChI=1S/C6H7NO2/c1-4-6(5(2)8)9-3-7-4/h3H,1-2H3
