16
gdb 30596	4.43453	1.06609	0.86451	2.5743	75.06	-0.2261	-0.0346	0.1915	1288.2631	0.125657	-434.101981	-434.093375	-434.092431	-434.136432	30.168	
C	-0.0866311335	 1.3416525961	 0.1006621219	-0.309856
N	-0.0496918237	-0.091309607	-0.1045700455	-0.312475
C	 0.6161172136	-0.6299341412	-1.1691203732	 0.251114
N	 1.1276490658	 0.1270787025	-2.0736443521	-0.557763
C	 0.6694650876	-2.1011103428	-1.1805377311	 0.331321
C	 1.2162243738	-3.0295820355	-2.0106236918	-0.191045
N	 0.9638916191	-4.3015675948	-1.5218254226	-0.253428
C	 0.2913048593	-4.0945485074	-0.4376165267	 0.070165
O	 0.0669635372	-2.7926923452	-0.153905266	-0.194163
H	 0.9114637183	 1.7589772989	 0.2856437481	 0.131396
H	-0.4870733789	 1.835186113	-0.7887257663	 0.15155
H	-0.732051286	 1.5587582194	 0.9543137446	 0.117288
H	-0.2721187295	-0.6981703371	 0.6642359343	 0.255422
H	 1.5466964611	-0.4248806538	-2.8179935184	 0.215022
H	 1.7728342651	-2.8773406834	-2.9212456854	 0.137428
H	-0.1067751192	-4.8188862518	 0.2555262501	 0.158025
37.0548	97.3734	112.9688	161.8225	219.5193	292.5477	353.1135	405.0141	476.2907	609.099	658.649	741.3989	780.197	798.9612	841.7576	874.6207	936.534	962.3204	1019.4537	1130.3945	1144.0516	1156.2909	1170.4532	1186.6506	1205.5102	1257.4144	1342.8796	1352.5858	1452.7247	1472.1302	1510.018	1525.0422	1564.1907	1631.6844	1681.665	3022.4661	3091.6087	3134.1496	3268.8869	3278.3887	3518.7194	3680.554
CNC(=N)C1=CN=CO1	CNC(=N)c1cnco1	
InChI=1S/C5H7N3O/c1-7-5(6)4-2-8-3-9-4/h2-3H,1H3,(H2,6,7)	InChI=1S/C5H7N3O/c1-7-5(6)4-2-8-3-9-4/h2-3H,1H3,(H2,6,7)
