19
gdb 62062	4.46247	0.79412	0.73841	2.135	78.8	-0.2437	0.0283	0.272	1556.0295	0.156051	-422.953146	-422.943207	-422.942263	-422.988953	36.036	
O	-0.6317375892	 0.8846250761	-0.6193152295	-0.406389
C	-0.0438602681	-0.351932339	-0.2255499908	-0.050005
C	 0.8979822762	-0.9151472767	-1.3059274797	-0.078697
O	 0.1358693272	-1.2613813913	-2.4448758288	-0.245003
C	 0.5811544085	-0.722030445	-3.6526625859	 0.131764
C	-0.480559103	-0.4025019283	-4.6535949531	-0.280017
C	 0.2704303515	 0.7196149389	-3.963885228	-0.293863
C	 0.6542339845	-0.2381193165	 1.0565771699	 0.289268
C	 1.267991902	-0.1078459779	 2.0821174769	-0.45742
H	 0.0248131271	 1.5753364181	-0.4748108263	 0.286493
H	-0.8839121712	-1.0499513815	-0.1320530389	 0.13063
H	 1.6595061317	-0.161715456	-1.5450398813	 0.098254
H	 1.4079188386	-1.8053947777	-0.9127781127	 0.108978
H	 1.5228664612	-1.1372143946	-4.0125629174	 0.082344
H	-0.2826203962	-0.6036095249	-5.7002749357	 0.11201
H	-1.5024112937	-0.5772668909	-4.3378954034	 0.128748
H	-0.2646352826	 1.2619139319	-3.193259313	 0.132017
H	 0.9882454009	 1.2977212881	-4.5357740651	 0.107371
H	 1.7901621646	-0.0026903827	 3.0011942429	 0.203518
44.7308	63.0447	82.6757	145.6074	218.4455	239.2379	290.6575	317.0602	378.7419	437.9575	476.2359	554.1118	573.3878	642.5828	681.9463	759.7705	820.3366	824.1863	868.338	947.0599	968.6476	991.3892	1050.0394	1073.1912	1086.7559	1090.755	1099.0581	1130.2622	1194.0659	1198.4679	1236.5511	1259.0237	1281.145	1330.0721	1371.4121	1410.6809	1428.5766	1454.3368	1484.2874	1500.2749	2232.7561	3004.4285	3045.9635	3062.4505	3095.0366	3136.2466	3143.305	3226.4972	3239.5421	3501.987	3804.9448
OC(COC1CC1)C#C	O[C@@H](COC1CC1)C#C	
InChI=1S/C7H10O2/c1-2-6(8)5-9-7-3-4-7/h1,6-8H,3-5H2	InChI=1S/C7H10O2/c1-2-6(8)5-9-7-3-4-7/h1,6-8H,3-5H2/t6-/m1/s1
