19
gdb 77447	1.90429	1.51441	1.42754	3.6693	77.31	-0.2312	-0.0079	0.2233	1105.9572	0.156497	-423.021959	-423.012412	-423.011468	-423.055806	35.496	
C	-0.0034193002	 1.5734261678	 0.0029363164	-0.424314
C	 0.1361143855	 0.065693037	-0.0767105744	-0.129557
C	 0.7184283829	-0.7282118271	-1.208150319	 0.267148
C	 0.011320935	-1.8707941928	-1.8751138456	-0.492171
C	 1.9137579524	 0.0255644018	-1.8127099756	-0.41741
C	 2.607439243	-0.0829136155	-0.4256931696	 0.355297
O	 3.7422995668	 0.0693204655	-0.0703159062	-0.324976
C	 1.4075869133	-0.7299817178	 0.2045471728	 0.219489
O	 1.4486394026	-1.7411759437	 1.1372813132	-0.449132
H	 0.8610463424	 2.0980365905	-0.4101135567	 0.132552
H	-0.8913486447	 1.9092667832	-0.5438758042	 0.123596
H	-0.114870802	 1.8953792655	 1.0438015869	 0.122311
H	-0.7027055851	-0.4657011415	 0.3752259669	 0.09461
H	-0.6662657374	-1.5153603161	-2.6601410116	 0.125469
H	 0.7251422741	-2.560044205	-2.3389431342	 0.127045
H	-0.5822693044	-2.4371251338	-1.1505893759	 0.129929
H	 2.4694369464	-0.5664501539	-2.5470544506	 0.128618
H	 1.7376033615	 1.0241666178	-2.2203714425	 0.115743
H	 1.233455538	-1.3804091819	 2.0040495601	 0.295754
95.0806	160.6254	167.5786	191.053	194.3242	242.0564	265.3127	271.537	341.1899	430.6224	504.6812	534.4601	577.2444	619.4047	673.5831	718.6444	736.4156	874.5741	925.4522	984.8766	1003.6813	1022.1455	1067.7207	1109.0492	1113.3532	1122.3771	1160.5841	1196.7364	1239.1915	1288.9916	1318.4935	1369.8943	1414.8833	1419.6571	1453.4386	1485.1092	1487.9377	1494.617	1498.9592	1507.9655	1872.709	3026.2933	3035.6724	3056.0713	3086.7846	3093.2459	3100.2213	3104.8079	3107.9669	3125.6297	3801.4366
CC1C2(C)CC(=O)C12O	C[C@H]1[C@@]2(C)CC(=O)[C@@]12O	
InChI=1S/C7H10O2/c1-4-6(2)3-5(8)7(4,6)9/h4,9H,3H2,1-2H3	InChI=1S/C7H10O2/c1-4-6(2)3-5(8)7(4,6)9/h4,9H,3H2,1-2H3/t4-,6+,7-/m0/s1
