21
gdb 87791	3.76447	1.01446	0.93698	1.3167	84.3	-0.2443	0.0788	0.3231	1339.3777	0.181608	-387.043077	-387.03425	-387.033306	-387.077097	34.603	
O	-0.0346656609	 1.4202329612	 0.1168737327	-0.419458
C	-0.0215076181	 0.0221705547	 0.1302140243	 0.048019
C	-0.6656507237	-0.7223824494	 1.278122906	-0.400722
C	-1.3370416953	-0.6555137096	-0.0691276664	 0.357547
C	-2.6401070128	 0.0728018399	-0.4318971902	-0.371866
C	-2.8482764705	-0.9802677017	-1.536021597	 0.387556
C	-4.1462579599	-1.5009196479	-2.0737492646	-0.326582
C	-3.2170229544	-0.7037924793	-2.9633829094	-0.312867
C	-1.6347408409	-1.7969239442	-1.054590431	-0.386598
H	 0.5712237808	 1.7308489387	 0.7974996078	 0.287368
H	 0.8530127559	-0.4330191728	-0.3382566369	 0.080302
H	-0.2259534732	-1.6618700166	 1.6001605928	 0.107643
H	-1.0955977695	-0.1207329067	 2.0736981838	 0.110574
H	-3.3994773079	 0.045668393	 0.3570827848	 0.093999
H	-2.5114035015	 1.1062114145	-0.764277286	 0.116439
H	-4.2353706828	-2.5680634416	-2.2534356064	 0.107595
H	-5.0647532808	-1.0281323335	-1.7393996582	 0.108784
H	-3.5065277963	 0.3080631886	-3.2297813215	 0.110851
H	-2.6784395045	-1.2329409796	-3.7436768004	 0.107924
H	-0.8598849281	-1.9962228856	-1.8025785317	 0.096833
H	-1.9022706455	-2.7411528423	-0.5671417026	 0.09666
26.0077	161.8185	182.509	250.3949	289.1469	304.7274	333.4289	385.1143	433.5858	448.3275	520.3894	660.4788	772.6027	801.5126	828.8792	839.0055	873.3338	894.9949	896.651	906.861	967.8446	987.7481	1022.0819	1032.9856	1051.1202	1073.8274	1091.3396	1101.5789	1124.6816	1168.8406	1187.0826	1195.8987	1200.0889	1235.6801	1239.0087	1261.1971	1299.7424	1343.6729	1377.9192	1424.7142	1463.891	1475.4057	1489.0551	1493.0898	1505.8911	3028.1278	3039.8155	3075.158	3081.1668	3097.4842	3115.3345	3117.3519	3121.6218	3194.7286	3204.2042	3210.1008	3807.2937
OC1CC11CC2(CC2)C1	O[C@H]1CC21CC1(CC1)C2	
InChI=1S/C8H12O/c9-6-3-8(6)4-7(5-8)1-2-7/h6,9H,1-5H2	InChI=1S/C8H12O/c9-6-3-8(6)4-7(5-8)1-2-7/h6,9H,1-5H2/t6-/m0/s1
