14
gdb 53928	1.84781	1.61925	1.2828	5.8524	69.46	-0.2591	-0.02	0.2391	1060.4498	0.097807	-432.825501	-432.815848	-432.814904	-432.859944	34.973	
N	-0.0483055856	 1.3304378075	 0.3609874889	-0.540174
C	 0.0724431396	 0.0306819582	-0.049945914	 0.307438
N	 1.0979464543	-0.6144041224	-0.431520022	-0.491345
C	-1.2878405551	-0.7233088386	-0.0168665846	-0.021642
O	-2.1623264204	-0.1858975293	 0.9736110038	-0.440628
C	-1.9481911374	-0.5470321099	-1.3136330267	 0.420393
C	-2.4690296815	-0.3865418949	-2.3819408782	-0.462235
C	-1.0597836514	-2.1641177563	 0.2449380169	 0.300928
N	-0.95948089	-3.2796642085	 0.5240497798	-0.339117
H	 0.6846969369	 1.9807982104	 0.1309568564	 0.260111
H	-0.9751285875	 1.7031648247	 0.4917465913	 0.27175
H	 1.9350702256	-0.0303938436	-0.4598461732	 0.212796
H	-1.7914034391	-0.4014395041	 1.8392063852	 0.30394
H	-2.9336823985	-0.2570953133	-3.3289134237	 0.217788
48.9435	121.1025	144.6937	170.4891	244.6476	272.4794	302.7725	362.6418	395.4124	416.7121	481.3579	501.668	519.3762	566.8044	617.633	655.9575	676.9563	685.2971	705.6472	859.553	1023.5446	1057.8913	1071.0507	1112.8507	1120.7632	1366.8738	1395.0817	1616.5031	1746.0984	2251.5987	2367.9101	3464.8924	3499.083	3590.4363	3714.9256	3782.7298
NC(=N)C(O)(C#C)C#N	NC(=N)[C@@](O)(C#C)C#N	
InChI=1S/C5H5N3O/c1-2-5(9,3-6)4(7)8/h1,9H,(H3,7,8)	InChI=1S/C5H5N3O/c1-2-5(9,3-6)4(7)8/h1,9H,(H3,7,8)/t5-/m1/s1
