16
gdb 56620	2.4677	1.11576	1.0037	5.7118	73.47	-0.2532	-0.0389	0.2143	1251.169	0.120625	-437.883121	-437.873407	-437.872463	-437.918255	33.842	
C	 0.0584246798	 1.5084483738	 0.0877143	-0.379723
C	-0.0313009871	-0.0216392937	-0.0597188992	-0.19449
C	-1.4167510935	-0.4932855237	-0.0294246965	 0.336747
C	-2.5611424436	-0.8557227528	 0.0124438902	-0.445082
N	 0.6885359578	-0.5013472506	-1.260928817	-0.090333
C	 0.121810644	-0.2502761994	-2.5223917404	 0.170022
O	 0.610751691	-0.5200557925	-3.5828499698	-0.263402
C	 1.9066383857	-1.1722924124	-1.0794395894	 0.169565
O	 2.6287803029	-1.5865524335	-1.9401055618	-0.261574
H	 1.1063800842	 1.8193254854	 0.1084434687	 0.135125
H	-0.4393025316	 2.0114806003	-0.7451604005	 0.141073
H	-0.4252515527	 1.8236906605	 1.0155241273	 0.141749
H	 0.4915418928	-0.4727729222	 0.7916189231	 0.134558
H	-3.5694599358	-1.1894952238	 0.045926732	 0.214696
H	-0.8659369832	 0.2339749474	-2.4142119147	 0.104713
H	 2.1292847294	-1.2812498626	 0.0021729878	 0.086356
43.9823	100.9545	151.7561	174.0607	192.6723	236.8627	242.3816	267.8389	339.7126	405.1025	476.8187	526.5825	552.3376	645.1967	676.6389	704.0237	870.5888	953.4268	997.7575	1015.0388	1037.1687	1085.2112	1118.1221	1176.7863	1258.8329	1322.5233	1395.2034	1410.1176	1453.4705	1478.8911	1488.3511	1495.8481	1799.9161	1878.0749	2240.9491	2913.1369	2967.1319	3039.4094	3050.6141	3131.6682	3134.2444	3498.6983
CC(C#C)N(C=O)C=O	C[C@@H](C#C)N(C=O)C=O	
InChI=1S/C6H7NO2/c1-3-6(2)7(4-8)5-9/h1,4-6H,2H3	InChI=1S/C6H7NO2/c1-3-6(2)7(4-8)5-9/h1,4-6H,2H3/t6-/m0/s1
