23
gdb 36836	4.06702	0.94748	0.91098	0.183	90.12	-0.2664	0.094	0.3604	1410.6743	0.207318	-351.095874	-351.087537	-351.086593	-351.129436	33.211	
C	-0.0053113805	 1.5367832387	-0.1872106776	-0.366252
C	-0.1166055833	 0.0250452409	-0.1962004158	 0.039774
C	-0.2390764233	-0.7454036894	 1.0952684442	-0.250412
C	-1.4174344464	-0.6488862244	 0.156526509	-0.279957
C	 1.4116428031	 2.0412045424	-0.0432670849	 0.379967
C	 2.6239358721	 1.7629108194	-0.9927518576	-0.24727
C	 3.1756486935	 2.6903678406	 0.1249011169	-0.043629
C	 1.8782299094	 3.5311847749	-0.0285590493	-0.264921
C	 2.4025146428	 1.8088916526	 1.1438728563	-0.2418
H	-0.43208673	 1.9434701928	-1.1151077323	 0.095381
H	-0.615867362	 1.9408179796	 0.6322842555	 0.0906
H	 0.4652709377	-0.4575286406	-0.9776951401	 0.082598
H	 0.2729248684	-1.6972000079	 1.1849398317	 0.107864
H	-0.2826263518	-0.178529185	 2.0197493634	 0.109582
H	-2.2495592863	-0.0178566263	 0.4521922453	 0.108083
H	-1.709362675	-1.5342240815	-0.3976055723	 0.108194
H	 3.007443833	 0.7384921568	-1.0137050875	 0.085405
H	 2.563184556	 2.1874406073	-1.9996893917	 0.083297
H	 4.1948124325	 3.0659164518	 0.2216007188	 0.067117
H	 1.7600836706	 4.0900280969	-0.9621610192	 0.083429
H	 1.5735762445	 4.1297799831	 0.8355742861	 0.08318
H	 2.1389087647	 2.2763795391	 2.0978271819	 0.081655
H	 2.7669104004	 0.7879493482	 1.287011039	 0.088113
58.283	80.9194	127.2766	271.5182	309.1127	335.9365	410.8815	543.3897	546.6651	673.7293	767.617	776.1822	795.1414	812.0725	838.8101	881.7742	885.2646	922.8547	954.1878	956.1091	960.3162	985.1228	996.0125	1007.544	1055.8935	1078.3368	1083.2495	1100.0593	1111.7404	1139.7384	1143.778	1145.5322	1159.7355	1195.8982	1198.4409	1227.2138	1229.8357	1235.9467	1238.8723	1287.7942	1310.3001	1349.6737	1417.7929	1468.395	1477.6656	1496.6534	1497.7171	1507.625	1555.2907	3000.814	3035.6769	3035.9918	3038.5074	3046.2122	3099.0685	3104.4155	3105.4658	3107.9818	3126.928	3130.95	3136.3623	3204.1932	3219.4875
C(C1CC1)C12CC(C1)C2	C(C1CC1)[C@@]12C[C@@H](C1)C2	
InChI=1S/C9H14/c1-2-7(1)3-9-4-8(5-9)6-9/h7-8H,1-6H2	InChI=1S/C9H14/c1-2-7(1)3-9-4-8(5-9)6-9/h7-8H,1-6H2/t8-,9+
