18
gdb 31662	2.27021	1.3444	0.85389	1.5995	76.75	-0.1844	0.0524	0.2368	1326.3656	0.146609	-439.102768	-439.092902	-439.091958	-439.138662	34.777	
C	-0.0114589331	 1.4410941853	-0.0104160714	-0.331562
N	-0.0466896252	-0.0027623941	-0.0006949886	 0.015087
C	 0.0518361529	-0.8062119146	-1.1213412273	-0.24012
C	 0.1048494191	-2.1117348541	-0.6851721949	 0.197567
O	 0.1845575648	-3.2673987507	-1.4140793492	-0.45226
C	 0.0435823084	-2.1128487878	 0.7343427212	 0.179569
C	 0.0508166509	-3.3143747926	 1.6228015525	-0.186033
O	 0.0890125604	-2.8764270437	 2.9753811018	-0.423938
C	-0.0446572995	-0.7921750225	 1.117055858	-0.167659
H	 0.9999067088	 1.8275760207	-0.1888304183	 0.132274
H	-0.6741876164	 1.8325729302	-0.7885849357	 0.133189
H	-0.3598293686	 1.8143866162	 0.954957474	 0.139759
H	 0.0721687538	-0.3850917999	-2.1139142826	 0.102588
H	 0.227234306	-3.0438374375	-2.3483979315	 0.29308
H	-0.843653656	-3.9324332619	 1.4349608672	 0.095688
H	 0.9198985553	-3.9506069836	 1.3857672909	 0.097363
H	 0.0426072958	-3.6545517679	 3.5373402388	 0.28621
H	-0.1001060974	-0.3654334016	 2.1044826851	 0.129198
25.948	75.0085	148.4089	154.0844	207.5576	240.5677	254.8145	274.9171	331.3023	363.2634	555.1906	592.6825	602.9607	615.7953	625.2441	685.6221	759.1234	838.5771	1022.0359	1048.4471	1067.5189	1090.3764	1139.5765	1149.4332	1179.0521	1217.2898	1230.3907	1238.3515	1283.8534	1398.2308	1432.98	1449.6842	1462.6763	1481.8366	1490.9364	1520.8336	1522.3747	1591.7001	1635.2505	2951.0711	2965.5269	3018.8363	3080.8988	3128.2221	3250.8775	3277.076	3837.5016	3840.1261
CN1C=C(O)C(CO)=C1	Cn1cc(O)c(CO)c1	
InChI=1S/C6H9NO2/c1-7-2-5(4-8)6(9)3-7/h2-3,8-9H,4H2,1H3	InChI=1S/C6H9NO2/c1-7-2-5(4-8)6(9)3-7/h2-3,8-9H,4H2,1H3
