21
gdb 116702	3.24494	0.85719	0.76205	2.7213	83.94	-0.2188	0.0168	0.2355	1589.2753	0.180905	-420.365859	-420.355641	-420.354697	-420.402682	35.35	
C	 0.3658024507	 0.3428114407	 0.6853254377	-0.248603
O	-0.7317407233	 0.173294968	-0.202594395	-0.189694
C	-1.3496636603	-1.0240765229	-0.1361843354	 0.121673
N	-2.333732957	-1.2615075795	-0.8878773274	-0.246022
C	-2.9874362267	-2.5537680794	-0.803989944	 0.016045
C	-2.0722349838	-3.8140152747	-0.8493564336	-0.174423
N	-2.1645434575	-3.9043200469	 0.6205530608	-0.062039
C	-2.2241976871	-5.2090459964	 1.2381216069	-0.319853
C	-3.3746634538	-3.0599798785	 0.61786849	-0.174438
H	 0.7506708305	 1.3482461496	 0.5101936552	 0.143612
H	 0.0537193049	 0.2561677163	 1.7333481017	 0.126101
H	 1.1617634438	-0.3852210667	 0.486155861	 0.126103
H	-0.9262389147	-1.7227430287	 0.5991369741	 0.100516
H	-3.8044351965	-2.5610462902	-1.5254858259	 0.084438
H	-2.5558471408	-4.6579023628	-1.3689877743	 0.083685
H	-1.0602007612	-3.6778972764	-1.2465686719	 0.09928
H	-1.2786324034	-5.7394687637	 1.082020498	 0.120352
H	-2.3756808495	-5.1043337397	 2.3178890512	 0.12035
H	-3.0408344534	-5.8398383599	 0.8373896362	 0.089953
H	-3.4229748371	-2.3099798968	 1.4151673582	 0.099275
H	-4.3116368937	-3.6413968212	 0.6089664665	 0.083689
30.7832	60.1587	82.0835	142.7144	169.0894	183.4315	229.9422	296.4593	317.1493	366.7888	459.6282	467.7367	569.9547	692.6693	855.9808	869.8026	924.2944	992.4538	1014.6346	1020.7075	1047.6629	1074.105	1107.6663	1131.2229	1141.262	1177.0477	1193.0304	1196.1286	1213.1269	1243.0483	1271.4246	1282.3844	1295.665	1333.3299	1373.3253	1423.9901	1451.0805	1484.5602	1486.7104	1493.6371	1495.1229	1498.0166	1500.9757	1522.3421	1752.0624	2924.1559	2958.4595	2968.9499	3010.0191	3026.7014	3054.0108	3056.8058	3057.4781	3075.0245	3096.2934	3102.1355	3142.5576
COC=NC1CN(C)C1	COC=NC1CN(C)C1	
InChI=1S/C6H12N2O/c1-8-3-6(4-8)7-5-9-2/h5-6H,3-4H2,1-2H3	InChI=1S/C6H12N2O/c1-8-3-6(4-8)7-5-9-2/h5-6H,3-4H2,1-2H3
