19
gdb 78091	2.64232	1.28688	1.03454	5.2953	80.71	-0.2487	0.0197	0.2685	1218.2956	0.158708	-382.047193	-382.038272	-382.037328	-382.080552	33.591	
C	-0.1052542086	 1.5630942182	-0.0145334391	-0.431732
C	 0.0506854096	 0.0660167384	 0.1211874555	-0.017476
N	 1.2543704198	-0.7094728767	-0.2865589829	-0.187772
C	 2.4514881586	 0.1205076162	 0.1160125544	-0.104366
C	 2.0407437533	 0.0942602059	 1.6167048728	-0.329651
C	 0.7864193111	-0.66578302	 1.1758248391	 0.3309
C	 0.2496205458	-1.8697979033	 1.8909972225	-0.492414
C	 3.7004000893	-0.5676597767	-0.1876240687	 0.292111
N	 4.7044913552	-1.0967167638	-0.4050932653	-0.321966
H	 0.6826873908	 2.1355983969	 0.480292104	 0.124812
H	-0.1264213238	 1.8548942728	-1.0701326267	 0.13685
H	-1.0566198167	 1.8699347839	 0.4316340555	 0.130608
H	-0.8252679498	-0.4746386433	-0.2336528648	 0.103373
H	 2.4797551935	 1.1060961687	-0.35844057	 0.12212
H	 2.7143591742	-0.5202215315	 2.2149033795	 0.137228
H	 1.9035551859	 1.0581172928	 2.1137756944	 0.114883
H	-0.2497812947	-1.5753078699	 2.8217692374	 0.125777
H	-0.4779923713	-2.3983251505	 1.268845106	 0.134157
H	 1.0524273878	-2.569694578	 2.1451249065	 0.132558
94.9569	157.2425	174.2766	190.7885	231.8802	278.1737	292.6948	332.2316	442.437	494.8351	549.0134	552.0132	619.9037	710.303	764.048	840.4667	871.9823	917.7277	946.7996	989.9057	1034.7039	1041.216	1080.211	1102.6221	1144.4716	1155.4691	1175.6523	1220.9391	1239.7016	1310.8417	1336.3882	1354.6624	1414.4364	1414.9264	1458.373	1481.0001	1491.6368	1493.5813	1504.2017	1507.1938	2361.0972	3029.6807	3039.9275	3063.7585	3069.3794	3092.9542	3100.7989	3112.251	3115.9303	3131.0633	3134.116
CC1N2C(CC12C)C#N	C[C@H]1N2[C@@H](C[C@@]12C)C#N	
InChI=1S/C7H10N2/c1-5-7(2)3-6(4-8)9(5)7/h5-6H,3H2,1-2H3	InChI=1S/C7H10N2/c1-5-7(2)3-6(4-8)9(5)7/h5-6H,3H2,1-2H3/t5-,6+,7+,9?/m1/s1
