14
gdb 31308	2.35405	1.5509	0.94056	6.46	74.23	-0.2299	-0.0354	0.1945	1167.3868	0.101397	-436.711429	-436.703484	-436.70254	-436.744504	28.348	
C	 0.0085127944	 1.4334574891	 0.0088781164	-0.256425
O	 0.0004660054	 0.0116598033	 0.0050248953	-0.250323
C	-1.1980062255	-0.5848236374	 0.0126600636	 0.240483
C	-1.3682017596	-1.9529763587	 0.0102616538	 0.15469
O	-2.7128230356	-2.2413618928	 0.0197214888	-0.167912
C	-3.3672586106	-1.068245286	 0.0280905995	 0.008974
C	-2.507750759	-0.0106890016	 0.0243748939	-0.315745
C	-0.4463756232	-3.0112892992	 0.0002499688	 0.237287
N	 0.329384666	-3.8734722912	-0.0081389768	-0.357057
H	 1.0575780599	 1.7296787056	 0.0015940961	 0.152084
H	-0.4899533358	 1.8350083601	-0.8814799006	 0.132993
H	-0.4761298982	 1.8300737231	 0.9090257006	 0.132992
H	-4.4433096993	-1.132178766	 0.0362103875	 0.154896
H	-2.7740544689	 1.0328343217	 0.029315883	 0.133063
77.5033	126.6718	159.5522	204.9482	251.1967	324.7574	426.3119	513.5962	544.0549	621.1217	626.1755	709.998	714.1705	772.466	830.4365	906.4249	1031.2149	1093.6764	1147.6276	1177.2316	1194.6872	1220.2544	1255.018	1330.635	1450.6871	1485.5539	1492.8763	1502.2937	1530.1572	1648.6776	2332.9123	3016.6196	3081.8405	3151.2675	3267.9145	3287.4626
COC1=C(OC=C1)C#N	COc1c(occ1)C#N	
InChI=1S/C6H5NO2/c1-8-5-2-3-9-6(5)4-7/h2-3H,1H3	InChI=1S/C6H5NO2/c1-8-5-2-3-9-6(5)4-7/h2-3H,1H3
