19
gdb 84791	2.70661	1.49198	1.2037	3.1288	75.4	-0.2426	0.0018	0.2444	1079.7411	0.160151	-423.006356	-422.998241	-422.997297	-423.03942	31.085	
O	 0.0679056902	 1.5054578005	 0.6663448233	-0.427672
C	-0.0146700652	 0.2124326429	 0.0629546741	 0.028858
C	 0.8084165267	-0.8038364244	 0.8166304874	-0.115237
C	 0.0378805451	-1.651711141	 1.4989123554	-0.061581
C	-1.4326606835	-1.402731221	 1.2643414356	-0.358873
C	-1.4427496037	-0.4100812051	 0.0835237955	 0.260003
C	-2.6103026868	 0.5797398658	-0.0981400674	-0.12946
O	-2.8640905302	 0.1144077283	-1.4412790141	-0.274882
C	-1.912106735	-0.9532249938	-1.2907414463	-0.11283
H	 0.0315519586	 1.3811515641	 1.6214559633	 0.27686
H	 0.323546023	 0.3768005325	-0.9653845585	 0.090536
H	 1.8913798439	-0.7637217703	 0.8417961936	 0.102164
H	 0.3986718032	-2.4294272072	 2.1637793236	 0.102765
H	-1.9864977958	-2.3201173144	 1.0330614566	 0.112678
H	-1.9094235905	-0.9840007813	 2.1624682828	 0.109861
H	-3.469493419	 0.4001279689	 0.5632621029	 0.087749
H	-2.3364156293	 1.638796762	-0.0653313149	 0.118849
H	-1.1672454179	-0.9612130643	-2.0968630114	 0.100748
H	-2.4010584739	-1.9369572022	-1.2492229515	 0.089463
72.8215	77.0491	218.8944	256.3735	318.3166	342.3195	366.3511	443.5574	507.1085	549.592	741.5547	777.5218	787.4713	843.5212	888.5358	914.8227	965.6354	981.5939	984.601	990.0102	1002.4863	1037.2973	1054.8531	1093.465	1131.1601	1157.1872	1160.8494	1175.314	1204.0457	1244.2225	1252.113	1295.408	1308.6741	1348.5442	1366.0455	1381.5903	1428.2016	1482.7844	1512.4164	1537.3105	1678.1573	2989.8133	3001.4982	3007.708	3039.0365	3052.7447	3058.3177	3079.3185	3182.8266	3209.8819	3797.0519
OC1C=CCC11COC1	O[C@H]1C=CCC21COC2	
InChI=1S/C7H10O2/c8-6-2-1-3-7(6)4-9-5-7/h1-2,6,8H,3-5H2	InChI=1S/C7H10O2/c8-6-2-1-3-7(6)4-9-5-7/h1-2,6,8H,3-5H2/t6-/m0/s1
