20
gdb 75551	2.48792	1.3994	0.96579	4.1018	85.65	-0.2494	0.0079	0.2573	1246.355	0.172485	-366.057931	-366.049222	-366.048278	-366.091306	33.132	
C	-0.0340244781	 1.55145325	 0.0277515953	-0.485202
C	 0.0235054824	 0.0495513905	-0.0359567353	 0.320619
C	-0.0212661721	-0.6251954738	-1.1867358914	-0.149375
C	-0.0225045917	-2.1241885795	-1.3233278723	-0.244773
C	-0.3304567111	-2.8235333078	 0.0057411968	-0.224275
C	 0.4657730185	-2.1842715476	 1.1437772681	-0.202241
C	 0.0850111567	-0.693086535	 1.3008303997	-0.226969
C	 1.008054631	-0.0426863633	 2.2401615084	 0.27062
N	 1.7403212233	 0.45310673	 2.9846651062	-0.33726
H	 0.861631563	 1.9698530627	 0.5004310495	 0.151529
H	-0.1319703879	 1.9829464532	-0.9712583313	 0.122195
H	-0.888425683	 1.8894035511	 0.6290510653	 0.12558
H	-0.0722008894	-0.0554924345	-2.1126854544	 0.086403
H	-0.7525764706	-2.4204644434	-2.0865713372	 0.107806
H	 0.9526760271	-2.4574843043	-1.7088997756	 0.11448
H	-1.4035682277	-2.7434360674	 0.2220162492	 0.103403
H	-0.1005523289	-3.8916537905	-0.0599012422	 0.10172
H	 0.2946032843	-2.7029315396	 2.0916166338	 0.114119
H	 1.5385626832	-2.2531405044	 0.9304697305	 0.121432
H	-0.9110315989	-0.6315479464	 1.7667606467	 0.130189
65.8595	149.5563	185.4059	201.7522	267.3806	302.4261	333.7926	407.849	435.3138	461.4806	561.449	583.5024	643.2451	753.9032	822.7274	859.4967	883.789	925.846	946.6928	1021.4451	1028.6384	1061.4269	1077.9008	1088.0521	1112.5169	1158.7469	1173.6945	1238.5484	1274.982	1298.8875	1314.5996	1349.8432	1370.0008	1382.1928	1386.7317	1420.6102	1476.495	1479.1802	1489.6114	1493.2547	1498.1747	1740.6329	2353.5603	2985.2269	2998.8656	3021.0304	3024.875	3043.9578	3046.835	3075.2661	3079.6882	3092.2497	3119.6481	3143.3815
CC1=CCCCC1C#N	CC1=CCCC[C@H]1C#N	
InChI=1S/C8H11N/c1-7-4-2-3-5-8(7)6-9/h4,8H,2-3,5H2,1H3	InChI=1S/C8H11N/c1-7-4-2-3-5-8(7)6-9/h4,8H,2-3,5H2,1H3/t8-/m0/s1
