20
gdb 11892	4.37895	1.44989	1.22434	0.3189	83.47	-0.2099	0.034	0.244	1065.5339	0.177627	-311.880793	-311.872842	-311.871898	-311.912979	30.813	
C	 0.0047007756	 1.501006297	 0.0250737116	-0.487952
C	-0.0122483028	 0.0067278211	-0.0307568397	 0.31514
C	-1.0697252722	-0.8004790748	 0.0905768173	-0.237607
C	-0.7042284117	-2.238675015	 0.0180870627	 0.372759
C	-1.2652902568	-3.2359595192	 1.0149459889	-0.310162
C	-1.6764465134	-3.3017145146	-0.4335939945	-0.315813
C	 0.7717037316	-2.2515542157	-0.4117801734	-0.306088
C	 1.2645261381	-0.7966903707	-0.1944095203	-0.304816
H	 0.6420258736	 1.8608218872	 0.8438329564	 0.121844
H	 0.4174630985	 1.930003408	-0.897451877	 0.121573
H	-0.99781665	 1.9127333345	 0.1712537146	 0.120186
H	-2.0911737053	-0.4691445016	 0.2517796018	 0.08114
H	-0.5953073294	-4.0023024695	 1.3920772782	 0.108449
H	-1.9912035111	-2.8827822331	 1.7402836547	 0.107856
H	-2.6847496957	-2.9977362888	-0.6966335889	 0.107614
H	-1.2868511331	-4.1149310302	-1.0384930485	 0.107195
H	 1.3648794047	-2.9849278932	 0.1416907825	 0.096411
H	 0.8442385281	-2.5131304269	-1.4731128942	 0.103126
H	 1.8799176788	-0.4364927578	-1.0280552376	 0.097543
H	 1.8906047726	-0.702174987	 0.7046638953	 0.101601
75.1649	146.6866	190.0557	239.7818	301.9259	367.1612	389.3642	483.5673	508.5663	589.2437	758.4153	779.2024	838.1201	858.634	872.3907	892.7059	931.02	942.6841	980.2908	986.8862	1019.0734	1027.8196	1055.3921	1071.7982	1091.3082	1162.0962	1183.0786	1191.17	1221.6582	1268.8766	1298.2325	1309.4077	1338.4726	1388.3638	1414.038	1464.7628	1478.4694	1482.4865	1489.9652	1499.1044	1501.3613	1719.3566	3000.7428	3011.2335	3032.9094	3046.735	3053.7594	3086.6715	3105.9242	3117.6568	3122.4282	3174.2803	3196.1419	3212.6345
CC1=CC2(CC2)CC1	CC1=CC2(CC2)CC1	
InChI=1S/C8H12/c1-7-2-3-8(6-7)4-5-8/h6H,2-5H2,1H3	InChI=1S/C8H12/c1-7-2-3-8(6-7)4-5-8/h6H,2-5H2,1H3
