22
gdb 47906	2.08848	1.61157	1.11914	3.2312	83.15	-0.2471	0.0318	0.2789	1185.3561	0.197222	-404.370163	-404.361637	-404.360693	-404.403371	33.424	
N	-0.118234419	 1.2982938211	-0.5619967681	-0.5086
C	-0.0257188422	 0.1056544573	-0.137665513	 0.387059
C	-1.2796319889	-0.7321057768	 0.0042250708	-0.281649
C	-1.9437612048	-0.682553279	 1.3979036175	-0.1885
C	-1.2228283868	-1.3772947779	 2.5654696646	-0.194171
C	 0.14301871	-0.7710712789	 2.956233103	-0.192318
C	 1.371853838	-1.4796170819	 2.3646408417	-0.197529
C	 1.3502489605	-1.6619313398	 0.8490522934	-0.076217
O	 1.1993207891	-0.4215232257	 0.1574375484	-0.2509
H	 0.8082882182	 1.7305837821	-0.5816404219	 0.212361
H	-1.9815377425	-0.3036485595	-0.7136128283	 0.135277
H	-1.1058575977	-1.7699891761	-0.2986557766	 0.107628
H	-2.1019643077	 0.3722383736	 1.6536691317	 0.119218
H	-2.9407446951	-1.1273926	 1.2966207103	 0.097649
H	-1.8932335673	-1.3221126236	 3.4305321346	 0.100398
H	-1.1099775962	-2.4492654677	 2.3515489117	 0.089616
H	 0.1635110743	 0.2883661443	 2.6749801023	 0.11654
H	 0.2503180907	-0.7890942115	 4.0461194412	 0.096747
H	 2.273897409	-0.9213527458	 2.6407602968	 0.107153
H	 1.4726902484	-2.4791960704	 2.8091781339	 0.098608
H	 2.3075427359	-2.0657965914	 0.5063077171	 0.114359
H	 0.5748143041	-2.3730366124	 0.5492258989	 0.10727
64.8238	137.7299	195.2197	231.874	249.6084	358.221	372.0498	451.1336	467.5369	491.4499	552.2671	653.7967	748.2035	765.6494	790.2435	847.8387	873.3402	908.5835	917.5746	969.9364	993.7661	1016.5609	1048.965	1072.0741	1112.609	1126.1885	1146.0012	1178.5008	1217.3961	1258.4573	1273.9645	1283.4488	1319.5537	1332.2132	1365.397	1373.6562	1383.8081	1389.9896	1400.836	1421.0562	1475.4067	1479.7534	1487.0439	1492.2895	1501.1844	1513.4673	1728.9588	3012.1486	3018.0969	3026.8772	3034.2247	3044.2847	3054.7982	3058.3852	3065.3349	3072.1387	3076.1902	3096.6172	3116.0026	3455.8745
N=C1CCCCCCO1	[NH][C]1CCCCCCO1	
InChI=1S/C7H13NO/c8-7-5-3-1-2-4-6-9-7/h8H,1-6H2	InChI=1S/C7H13NO/c8-7-5-3-1-2-4-6-9-7/h8H,1-6H2
