18
gdb 16584	3.13227	1.80816	1.48108	3.2223	72.54	-0.234	-0.0076	0.2263	937.3896	0.153059	-347.802642	-347.794621	-347.793677	-347.83481	30.088	
C	-0.0238593605	 1.5665904409	-0.0345999917	-0.418662
C	 0.0821127749	 0.0547956757	-0.0681773781	-0.016602
C	 0.6746030974	-0.764275812	-1.1609731013	-0.066246
C	 1.3509472931	-0.7354711979	 0.2471595104	-0.199398
C	 2.5487818376	-0.1097866522	-0.3976132801	 0.41412
O	 3.6775490238	 0.0786141134	-0.0354169462	-0.330643
C	 1.8917115311	-0.0753884857	-1.8073387249	-0.123312
C	 2.6771385602	-0.9199062992	-2.8098595466	-0.406968
H	 0.8540212596	 2.0612578372	-0.4556142895	 0.131965
H	-0.9017318169	 1.9033942227	-0.596786079	 0.121487
H	-0.1335827183	 1.9163293754	 0.9969104968	 0.12676
H	-0.7765606367	-0.433994206	 0.3900372529	 0.098604
H	 0.1624982925	-1.6122910463	-1.5991902383	 0.098999
H	 1.3701795114	-1.4725551942	 1.0411832554	 0.105273
H	 1.6994078238	 0.9188769986	-2.2231778358	 0.089179
H	 2.858564579	-1.928201856	-2.422670516	 0.121453
H	 2.1340804481	-1.0118049463	-3.7558322434	 0.117074
H	 3.6480047902	-0.4596352582	-3.0123352945	 0.136916
99.2791	164.9914	188.5944	213.4285	220.4786	310.861	371.304	448.1491	545.9171	632.9992	680.9623	753.5463	804.8322	854.8543	878.627	913.5293	931.7387	978.8839	1032.5903	1044.8467	1059.7305	1095.0863	1110.7088	1134.3403	1143.5172	1204.9746	1235.0625	1282.9248	1309.7846	1352.8794	1408.7596	1417.0194	1435.2275	1492.4118	1494.6421	1497.9261	1502.2112	1869.9489	3035.7474	3037.9547	3051.7865	3098.2716	3103.2496	3113.6198	3118.4071	3131.0548	3183.8921	3193.3973
CC1C2C1C(=O)C2C	C[C@H]1[C@@H]2[C@H]1C(=O)[C@H]2C	
InChI=1S/C7H10O/c1-3-5-4(2)7(8)6(3)5/h3-6H,1-2H3	InChI=1S/C7H10O/c1-3-5-4(2)7(8)6(3)5/h3-6H,1-2H3/t3-,4-,5-,6-/m0/s1
