19
gdb 108346	2.63512	1.69116	1.33678	2.2447	73.93	-0.2371	0.0619	0.299	1023.0661	0.159004	-422.946043	-422.938143	-422.937198	-422.978337	30.91	
C	 0.0947847887	 1.3602409254	-0.113578468	-0.257207
O	-0.0336917526	-0.0136959905	 0.2011144666	-0.289958
C	-1.3105100332	-0.5443064075	 0.079762728	 0.395954
C	-1.3330280276	-2.0749337188	-0.0658491489	-0.152903
O	-2.2413186786	-1.9848646266	-1.1967582901	-0.297076
C	-2.1866999765	-0.536644568	-1.198489917	 0.021517
C	-3.3166314227	 0.1984049689	-0.437308794	-0.05874
C	-3.7692713487	-0.6138858319	 0.7383124401	-0.297138
C	-2.4751959769	 0.1451667467	 0.850402419	-0.142985
H	 1.1536244127	 1.6063636709	-0.0102908881	 0.132445
H	-0.2189634232	 1.5700565554	-1.1458205314	 0.112481
H	-0.4855746951	 2.000429631	 0.5632646672	 0.115528
H	-0.3577585923	-2.4758183524	-0.3638979024	 0.110452
H	-1.747701705	-2.6654447859	 0.7578572716	 0.103831
H	-1.8846310686	-0.1206745454	-2.1619878298	 0.080842
H	-3.9059294324	 1.0112842606	-0.8446832477	 0.085976
H	-4.5914684879	-0.1865365509	 1.3036977565	 0.113091
H	-3.7941863137	-1.695307686	 0.6650709663	 0.132637
H	-2.3327335765	 0.9014505049	 1.6127605722	 0.091254
96.703	168.0377	173.9728	246.5284	302.1851	346.1162	406.0396	485.2983	516.8518	622.1557	696.7132	757.122	807.3323	857.6342	901.6072	929.3226	939.8046	973.5386	982.0552	1003.0186	1038.5995	1053.4285	1077.7404	1088.6034	1092.5291	1136.3144	1168.3415	1179.54	1182.7278	1192.3877	1239.2003	1253.3589	1290.9621	1299.1804	1334.1162	1378.7498	1484.2088	1488.64	1490.0232	1505.1705	1514.5181	2998.8998	3029.9333	3053.7908	3084.2354	3090.1505	3123.9984	3134.2817	3175.9398	3186.186	3217.04
COC12COC1C1CC21	CO[C@]12CO[C@H]1[C@H]1C[C@@H]21	
InChI=1S/C7H10O2/c1-8-7-3-9-6(7)4-2-5(4)7/h4-6H,2-3H2,1H3	InChI=1S/C7H10O2/c1-8-7-3-9-6(7)4-2-5(4)7/h4-6H,2-3H2,1H3/t4-,5+,6-,7-/m0/s1
