21
gdb 111108	3.10265	1.20923	1.11094	0.8319	78.82	-0.2264	0.0858	0.3122	1219.4834	0.182622	-424.193094	-424.1845	-424.183556	-424.226168	33.165	
C	 0.1899494095	 1.3177750133	 0.2541211014	-0.243424
O	-0.2813022555	 0.0679154624	-0.204189382	-0.256497
C	 0.5028785692	-0.475681061	-1.2309188484	 0.154463
C	 1.8015794021	-1.2419359761	-0.8185330654	 0.064875
C	 0.8749847945	-2.3726298011	-0.3144900647	-0.249779
C	 0.0611514461	-1.9315803285	-1.5754161821	-0.120392
C	 1.0724142148	-2.2855997023	-2.6770912264	 0.151336
C	 0.8293441537	-1.7408313338	-4.0752643483	-0.413721
O	 2.2770700149	-1.7108461898	-2.0878113644	-0.300259
H	 1.1891668923	 1.2442481181	 0.70745997	 0.109611
H	 0.2358991483	 2.0549521756	-0.5620906501	 0.108821
H	-0.5153564681	 1.6707819596	 1.01003011	 0.128519
H	 0.6253152199	 0.240807285	-2.054399044	 0.064743
H	 2.6244922557	-0.8127652456	-0.2487226833	 0.07598
H	 1.2873862025	-3.3841719497	-0.2965826839	 0.095042
H	 0.3669877385	-2.1270295951	 0.616016387	 0.118429
H	-0.9844397849	-2.1932321	-1.7321170296	 0.076039
H	 1.2044359197	-3.3749035725	-2.7399090464	 0.073883
H	 0.6118037379	-0.6697113345	-4.0703706895	 0.120219
H	 1.7154134118	-1.903111571	-4.6961009766	 0.128625
H	-0.0124063927	-2.2635221832	-4.5422909632	 0.113485
92.8652	165.0869	180.8068	205.9469	221.6734	270.1874	342.6866	420.1269	478.5896	493.2453	542.2181	644.247	810.1214	841.4317	856.2291	888.9286	925.5025	941.7768	972.7893	1003.2069	1008.5187	1048.3849	1062.983	1091.8531	1114.4567	1120.0451	1154.2037	1162.6748	1183.8078	1214.9456	1228.5548	1248.8537	1258.2863	1274.0155	1292.233	1334.8849	1388.6597	1398.4052	1412.3808	1477.3015	1485.1972	1489.355	1490.2608	1496.0503	1509.2795	2981.0687	2998.0401	3012.6115	3031.2301	3040.4073	3077.1725	3108.392	3117.9319	3122.7584	3130.4147	3134.2526	3164.2649
COC1C2CC1C(C)O2	CO[C@H]1[C@H]2C[C@@H]1[C@@H](C)O2	
InChI=1S/C7H12O2/c1-4-5-3-6(9-4)7(5)8-2/h4-7H,3H2,1-2H3	InChI=1S/C7H12O2/c1-4-5-3-6(9-4)7(5)8-2/h4-7H,3H2,1-2H3/t4-,5-,6-,7-/m1/s1
