18
gdb 39969	3.4436	1.44566	1.20087	1.3299	78.81	-0.2299	0.0017	0.2316	1056.5855	0.149	-401.883272	-401.8759	-401.874956	-401.915105	29.04	
C	-0.1147676817	 1.4620596065	-0.0311260847	-0.291799
N	 1.2052091324	 0.8015075992	 0.116600616	-0.380214
C	 0.0010468072	-0.0046590595	 0.014946562	 0.312905
C	-0.5461405174	-0.9847762731	 1.0945067539	-0.388949
C	-1.3610153549	-1.5463570438	-0.0546924946	 0.227749
C	-2.5952896357	-1.6417593681	-0.5314858528	-0.231516
C	-2.5558744408	-1.246476743	-2.000898651	-0.107205
O	-1.2711695935	-0.6170705109	-2.2000785234	-0.28153
C	-0.4558968805	-0.9803261302	-1.1061216852	 0.009834
H	-0.4438079666	 2.0149378519	 0.844711838	 0.118454
H	-0.3748671806	 1.9116341814	-0.9857453174	 0.127165
H	 1.7016664908	 0.8064239947	-0.7721444391	 0.234174
H	 0.2393286826	-1.6519533998	 1.4634290006	 0.122763
H	-1.0936279592	-0.5653098532	 1.9402975079	 0.122011
H	-3.5196217869	-1.8094078517	 0.0067372899	 0.106165
H	-2.66330767	-2.0950452205	-2.6952848258	 0.106057
H	-3.3447313345	-0.5222528182	-2.242052905	 0.11424
H	 0.3788094894	-1.6185514616	-1.4376621194	 0.079698
93.5893	198.0091	201.0472	261.7076	347.9057	363.1647	489.9401	554.8239	660.3333	752.8877	775.5701	795.2518	837.1606	873.6645	913.9697	927.6496	943.1674	962.1821	975.1129	1004.0815	1021.4574	1035.3746	1087.209	1103.312	1128.8047	1141.0715	1179.8532	1197.3374	1229.0123	1255.7116	1258.0487	1302.9945	1340.7489	1379.6996	1408.6482	1478.3061	1514.3211	1515.8174	1732.711	2971.6488	2976.9241	3033.8835	3055.9065	3107.6711	3119.8129	3195.6673	3214.0984	3486.1348
C1NC11CC2=CCOC12	C1N[C@]21C[C]1[CH]CO[C@@H]21	
InChI=1S/C7H9NO/c1-2-9-6-5(1)3-7(6)4-8-7/h1,6,8H,2-4H2	InChI=1S/C7H9NO/c1-2-9-6-5(1)3-7(6)4-8-7/h1,6,8H,2-4H2/t6-,7+/m1/s1
