17
gdb 23129	2.75184	1.20632	0.89457	1.4263	76.62	-0.1889	-0.0143	0.1745	1261.6528	0.136469	-455.107361	-455.098697	-455.097753	-455.140805	32.427	
O	 0.0651874251	 1.3641233094	-0.3102933835	-0.419423
C	 0.0380650471	-0.0307508564	-0.0402760093	-0.077225
C	-1.3976501734	-0.5591406871	 0.099550521	-0.091831
N	-2.190216708	-0.2425423479	-1.0994314302	-0.299123
C	-2.3899549168	-1.4174209941	-1.7986352002	-0.001162
C	-2.0227882455	-2.5245564756	-1.1115016413	-0.250432
C	-1.4416082507	-2.0820696514	 0.1418331471	 0.391657
N	-1.0010010374	-2.7138406937	 1.1669617141	-0.2749
O	-1.1167291504	-4.1088694863	 0.9778165483	-0.399781
H	-0.2087234937	 1.8279303807	 0.4881364514	 0.288109
H	 0.5184595281	-0.5129780826	-0.8973084039	 0.122906
H	 0.6059708433	-0.2960499091	 0.8610764314	 0.116401
H	-1.8604538963	-0.1175302198	 0.9901970169	 0.097701
H	-1.9001652765	 0.5865770895	-1.6004039052	 0.249728
H	-2.841590678	-1.3703856136	-2.7820481793	 0.126675
H	-2.1685337357	-3.5505707654	-1.4031077825	 0.119435
H	-0.7831113412	-4.4511328664	 1.8131498152	 0.301266
94.7589	127.1463	135.5983	229.7398	269.9339	308.5608	347.0556	381.5092	404.439	493.775	570.0462	630.0373	679.4509	733.1104	781.665	827.6362	895.0621	922.2423	938.8076	978.7707	1018.5949	1076.2545	1082.5975	1099.0331	1155.7553	1192.9323	1233.185	1267.7147	1333.9319	1367.0933	1379.6245	1394.6229	1408.4718	1438.4317	1496.7018	1618.0924	1717.9947	3023.9901	3031.7295	3094.4122	3214.4711	3285.3019	3586.8149	3809.6405	3826.394
OCC1NC=CC1=NO	OC[C@H]1NC=CC1=NO	
InChI=1S/C5H8N2O2/c8-3-5-4(7-9)1-2-6-5/h1-2,5-6,8-9H,3H2	InChI=1S/C5H8N2O2/c8-3-5-4(7-9)1-2-6-5/h1-2,5-6,8-9H,3H2/t5-/m1/s1
