19
gdb 91890	2.70919	1.56599	1.08413	3.7219	76.95	-0.2242	0.0014	0.2256	1127.6166	0.160569	-419.199186	-419.191134	-419.190189	-419.231705	30.974	
C	-0.0436530414	 1.4885530914	-0.0502366402	-0.317648
N	-0.0020153713	 0.0384098973	-0.0895509264	-0.068059
C	 0.9724955697	-0.5041874579	-1.0341584012	-0.191565
C	 0.6295215469	-1.9679994141	-1.2066887682	-0.011536
C	 1.5649786206	-3.0724455196	-0.8192536732	-0.257618
N	 0.4647077041	-2.6801161587	 0.0514013736	-0.076573
C	 0.680928451	-1.984470331	 1.2419663619	 0.338352
O	 1.1978244753	-2.4793564015	 2.215052426	-0.3329
C	 0.1761890492	-0.5374009361	 1.2430414235	-0.249085
H	 0.8982371707	 1.9448893487	 0.3100382906	 0.096413
H	-0.2533521243	 1.8814247754	-1.0499800838	 0.120199
H	-0.8479448864	 1.8147811352	 0.6171309115	 0.125253
H	 0.8807244341	 0.0293174076	-1.9845009814	 0.111952
H	 2.0181037048	-0.3813276464	-0.6875364112	 0.088553
H	-0.144407228	-2.1816898554	-1.9406384997	 0.106338
H	 1.4689509186	-4.0467764245	-1.2888771188	 0.131554
H	 2.5692081904	-2.8140499952	-0.4934782247	 0.134744
H	 0.9151469684	 0.0195344913	 1.8461371195	 0.114055
H	-0.7717239126	-0.4989913964	 1.7948105921	 0.137571
97.285	137.0606	224.6716	254.0008	308.9149	328.3966	387.0565	433.8106	474.8507	504.1173	602.9298	676.2878	709.7973	861.7549	877.9159	931.7455	968.7242	991.2827	1021.4509	1060.8842	1093.6907	1111.2458	1133.747	1154.6572	1159.1939	1196.1409	1197.8166	1218.2485	1267.4075	1295.1735	1353.2419	1362.7697	1383.9745	1427.4384	1459.3641	1475.3664	1487.3824	1499.7256	1506.5931	1510.5352	1808.719	2903.3732	2927.1766	2954.8723	3041.6569	3059.6627	3081.4299	3104.3732	3114.8737	3133.7335	3204.903
CN1CC2CN2C(=O)C1	CN1C[C@H]2CN2C(=O)C1	
InChI=1S/C6H10N2O/c1-7-2-5-3-8(5)6(9)4-7/h5H,2-4H2,1H3	InChI=1S/C6H10N2O/c1-7-2-5-3-8(5)6(9)4-7/h5H,2-4H2,1H3/t5-,8?/m0/s1
