14
gdb 24736	3.71586	1.22372	0.92056	2.4451	82.25	-0.2303	-0.0646	0.1657	1179.8048	0.101714	-399.573651	-399.565957	-399.565013	-399.606178	28.687	
O	-0.0941207702	-0.0195287039	 0.004066886	-0.357269
C	-0.0529564183	 1.2053343073	 0.0068166629	 0.161316
C	 1.2096320432	 1.9256269614	 0.0002179389	 0.268261
C	 2.2668919185	 2.5004150715	-0.0054399995	-0.435365
C	-1.2559956608	 2.0148464345	 0.0166800202	 0.258678
C	-1.4925198589	 3.3852915467	 0.0214729184	-0.252601
C	-2.8890949065	 3.5711690813	 0.031348411	-0.144327
C	-3.4717665322	 2.3115329864	 0.0320374442	-0.067504
N	-2.4802147524	 1.3872936636	 0.0230794912	-0.285614
H	 3.2062874167	 2.997533076	-0.0109482491	 0.210837
H	-0.7288077687	 4.1471120963	 0.0182416954	 0.119461
H	-3.4202309218	 4.5101514827	 0.0372540742	 0.109207
H	-4.5101543351	 2.0192753037	 0.0382101431	 0.13433
H	-2.5635896833	 0.3830026227	 0.0210816132	 0.28059
91.1111	119.1934	167.5148	236.5027	288.2608	451.4774	497.4447	585.6731	626.517	655.1924	660.2681	672.6306	683.3696	763.207	778.2756	836.6582	884.694	893.0629	940.1091	1046.9497	1073.6036	1122.1338	1147.9786	1277.7753	1338.6206	1434.5349	1456.5153	1487.2637	1584.7974	1693.9865	2217.3136	3249.3069	3261.8775	3272.605	3495.0025	3656.0052
O=C(C#C)C1=CC=CN1	O=C(C#C)c1ccc[nH]1	
InChI=1S/C7H5NO/c1-2-7(9)6-4-3-5-8-6/h1,3-5,8H	InChI=1S/C7H5NO/c1-2-7(9)6-4-3-5-8-6/h1,3-5,8H
