17
gdb 54341	1.89558	1.75398	1.17887	2.4168	73.13	-0.2477	-0.0385	0.2091	1099.778	0.134907	-418.010278	-418.001116	-418.000172	-418.044875	32.446	
C	-0.0412176904	 1.526265729	-0.0494182003	-0.492744
C	 0.0718692706	 0.0182507333	-0.012101391	 0.346959
O	 1.1247951224	-0.5645537812	-0.0132547305	-0.275859
C	-1.2640273322	-0.7697438359	 0.0020856349	 0.046887
C	-1.8592282593	-0.9273107439	-1.4486986944	-0.20596
N	-1.2828880946	-2.2818403464	-1.5082879983	-0.300844
C	-1.0755965761	-2.3151634105	-0.0429743936	-0.20206
C	-2.1783082202	-0.2464441995	 0.9999386823	 0.224728
N	-2.9026701376	 0.1749664691	 1.7975510338	-0.34464
H	 0.9401387573	 1.9613210503	-0.23883227	 0.151722
H	-0.7537657482	 1.8517549293	-0.8141982903	 0.145339
H	-0.4236807601	 1.8871059477	 0.9115286135	 0.174741
H	-2.9549292363	-0.8724662628	-1.437183355	 0.121143
H	-1.4753950466	-0.2328095866	-2.2042199472	 0.121827
H	-1.9028516448	-2.9945870799	-1.8736818368	 0.230976
H	-0.0836124393	-2.6537238709	 0.2626624537	 0.14433
H	-1.8514826045	-2.838053411	 0.5281534793	 0.113455
47.8841	110.9734	125.8532	147.5044	184.9111	217.236	298.0416	377.9398	487.9261	527.3244	557.67	573.7484	619.9809	676.4109	810.6261	920.2237	940.2572	953.4396	982.8771	1019.967	1045.4506	1075.8279	1107.1083	1136.1801	1189.1847	1214.2312	1248.63	1280.2322	1355.0767	1382.3638	1386.5861	1460.148	1472.9656	1494.6848	1523.5616	1828.5003	2345.5987	3016.1338	3033.513	3045.2566	3065.3854	3107.5441	3113.9358	3159.7186	3548.6852
CC(=O)C1(CNC1)C#N	CC(=O)C1(CNC1)C#N	
InChI=1S/C6H8N2O/c1-5(9)6(2-7)3-8-4-6/h8H,3-4H2,1H3	InChI=1S/C6H8N2O/c1-5(9)6(2-7)3-8-4-6/h8H,3-4H2,1H3
