20
gdb 17054	4.0959	1.33957	1.21252	1.3933	76.03	-0.2606	0.0766	0.3371	1083.1483	0.177588	-348.943086	-348.935001	-348.934056	-348.975665	30.916	
C	-0.0986365078	 1.6300050686	 0.1322754052	-0.442429
C	 0.0417283316	 0.1272176027	-0.0712246407	 0.065527
C	 1.1712322736	-0.4882712014	-0.9666564458	-0.087723
C	 2.1757722956	-0.1721458364	 0.1818349501	-0.233522
C	 0.913186521	-0.761455714	 0.878006204	-0.05752
C	 0.9351617307	-1.852665265	-0.2433339451	 0.084074
C	-0.253108003	-2.7466355491	-0.539546847	-0.147503
O	-0.3012271371	-3.7240846686	 0.4957132263	-0.421008
H	 0.8452115407	 2.1413379882	 0.3344909289	 0.117377
H	-0.5403544331	 2.0939592454	-0.7570688159	 0.113945
H	-0.771431049	 1.8366958142	 0.9723887987	 0.115878
H	-0.9513385627	-0.2832563194	-0.2700572352	 0.058438
H	 1.3254339226	-0.3310482175	-2.0368655451	 0.06105
H	 3.0778098451	-0.7891611573	 0.2160596694	 0.088656
H	 2.4168746448	 0.8739914448	 0.3684122488	 0.089988
H	 0.7664215158	-0.9288626341	 1.9460844663	 0.07027
H	 1.8283688948	-2.4857632881	-0.2030248159	 0.068703
H	-1.1984506146	-2.1903869421	-0.5946311219	 0.087996
H	-0.1002748153	-3.221241175	-1.5232808561	 0.082554
H	-1.0247226237	-4.3274761459	 0.3030013509	 0.285249
60.4225	163.9925	186.4723	238.1489	276.5905	280.4053	392.6049	419.6635	571.565	588.5783	753.6584	785.5008	790.2285	828.7007	895.6908	898.1968	1014.0671	1018.7386	1022.9772	1034.8169	1048.8485	1065.0373	1094.4871	1113.2253	1130.6546	1142.6148	1157.7732	1190.2952	1213.4905	1224.4846	1246.9123	1257.5108	1267.175	1278.8762	1407.481	1411.121	1424.3468	1469.7093	1496.8043	1497.1034	1522.2526	1534.6065	2962.1497	3012.5191	3031.0335	3047.3774	3062.3804	3068.9621	3082.3322	3084.9071	3102.1867	3116.5287	3137.9872	3828.074
CC1C2CC1C2CO	C[C@H]1[C@H]2C[C@@H]1[C@H]2CO	
InChI=1S/C7H12O/c1-4-5-2-6(4)7(5)3-8/h4-8H,2-3H2,1H3	InChI=1S/C7H12O/c1-4-5-2-6(4)7(5)3-8/h4-8H,2-3H2,1H3/t4-,5+,6-,7-
