23
gdb 78238	2.13385	1.5243	1.18532	1.2947	85.03	-0.2568	0.0782	0.335	1196.1116	0.206341	-388.293184	-388.283795	-388.282851	-388.327049	36.374	
C	-0.0544497043	 1.7285505555	 0.1502913402	-0.425701
C	 0.0556184171	 0.2241588472	-0.0007931547	-0.039895
C	 0.4672318772	-0.5387883618	-1.2393734613	-0.044874
C	 1.3129364252	-0.6156794301	 0.0200445958	-0.045409
C	 2.6724369946	-0.0133188172	-0.2795311843	 0.116177
O	 3.5565918794	-1.1298711444	-0.4186089849	-0.439711
C	 2.5046666294	 0.7639379725	-1.6072103025	-0.274713
C	 1.2861332394	 0.134009885	-2.340239284	 0.024284
C	 1.7278378248	-0.9022240296	-3.3840380093	-0.398762
H	 0.7194783822	 2.2837379589	-0.380534173	 0.118334
H	-1.0218049653	 2.076738023	-0.2292657185	 0.117338
H	 0.0032202265	 2.0134578359	 1.2069753765	 0.117164
H	-0.7537227578	-0.2782394512	 0.5267911155	 0.084456
H	-0.1572032419	-1.3742986395	-1.5407221818	 0.074026
H	 1.3304168426	-1.498544352	 0.6492472163	 0.086952
H	 3.0347258561	 0.6432909221	 0.5263311678	 0.059872
H	 4.4323887973	-0.784863775	-0.6192590971	 0.277782
H	 2.3498465156	 1.8277894592	-1.4109380777	 0.100046
H	 3.4183181708	 0.6909431977	-2.2075070803	 0.085186
H	 0.7067263131	 0.9162040056	-2.846479565	 0.065271
H	 2.341598954	-1.6755751881	-2.9115732273	 0.133205
H	 0.8661864184	-1.3865280831	-3.8559023083	 0.10631
H	 2.3219166357	-0.4322967704	-4.1753731923	 0.102663
96.5378	100.4364	127.9363	226.9732	254.7313	273.6081	302.2142	339.0427	356.9242	421.5606	487.8202	578.4957	686.7542	712.685	749.514	797.0292	802.7601	890.3904	914.5129	942.6247	956.1986	991.7602	1012.4883	1019.0603	1048.9408	1077.2591	1099.5236	1106.901	1140.4239	1146.5759	1158.2351	1216.0616	1227.1053	1240.2269	1272.0161	1310.2253	1339.9609	1352.5295	1357.3776	1383.2299	1405.577	1418.4999	1429.5602	1442.8303	1479.5504	1493.9607	1498.3027	1504.8263	1508.7304	2977.6832	3019.1128	3028.0634	3033.1246	3046.9989	3083.5298	3089.297	3093.8201	3109.1026	3111.2762	3140.3735	3150.1976	3173.8087	3816.5398
CC1C2C1C(O)CC2C	C[C@H]1[C@@H]2[C@H]1[C@@H](O)C[C@H]2C	
InChI=1S/C8H14O/c1-4-3-6(9)8-5(2)7(4)8/h4-9H,3H2,1-2H3	InChI=1S/C8H14O/c1-4-3-6(9)8-5(2)7(4)8/h4-9H,3H2,1-2H3/t4-,5+,6+,7-,8-/m1/s1
