16
gdb 83194	2.75494	1.55828	1.46492	4.7325	64.44	-0.2356	0.0384	0.274	953.9008	0.126327	-475.040849	-475.033391	-475.032446	-475.0728	28.916	
O	 0.2714297257	 1.3595008184	 0.0505408439	-0.426518
C	 0.0626984443	-0.0117666066	-0.0046366587	 0.111156
C	-1.3027502394	-0.6622667791	 0.0476794836	-0.140086
C	-2.5622046635	 0.1665026862	-0.0391644982	-0.111645
O	-2.410665202	 1.3175764436	-0.8910082405	-0.268216
C	-1.872823672	 1.1669881701	-2.1496676458	 0.432848
O	-2.1070942288	 1.977937514	-3.0055877538	-0.371827
N	-1.0612901946	 0.075475313	-2.3097062491	-0.343244
C	-0.5117063178	-0.7052830874	-1.2358909161	-0.052643
H	-0.5695346402	 1.8159275931	-0.0716208546	 0.309672
H	 0.8636767164	-0.5389427537	 0.5057689427	 0.114268
H	-1.414647804	-1.575366593	 0.6251158805	 0.105425
H	-3.3898646413	-0.4481399273	-0.4152728592	 0.129925
H	-2.855825558	 0.5751262169	 0.9315558745	 0.135687
H	-0.540125162	 0.1113522062	-3.1727410778	 0.265734
H	-0.0775852728	-1.6382765045	-1.5779184213	 0.109465
90.4721	180.6382	215.3677	237.6214	407.5669	442.5859	467.4179	535.3753	543.3583	599.2242	686.9805	730.381	765.4176	781.4008	798.7027	849.8319	931.9242	998.0047	1032.8334	1058.4998	1081.2766	1118.999	1125.5881	1154.3121	1215.6282	1273.6155	1298.3123	1336.113	1356.5962	1400.282	1427.5349	1446.0384	1483.7154	1515.5102	1860.3125	3028.1351	3092.6292	3147.4268	3154.4892	3170.2917	3626.4447	3784.4118
OC1C2COC(=O)NC12	O[C@H]1[C@H]2COC(=O)N[C@@H]12	
InChI=1S/C5H7NO3/c7-4-2-1-9-5(8)6-3(2)4/h2-4,7H,1H2,(H,6,8)	InChI=1S/C5H7NO3/c7-4-2-1-9-5(8)6-3(2)4/h2-4,7H,1H2,(H,6,8)/t2-,3+,4-/m0/s1
