15
gdb 125582	2.33118	1.82516	1.03084	4.0659	71.49	-0.2174	-0.0338	0.1836	1086.3536	0.112802	-450.15641	-450.148014	-450.14707	-450.18951	30.271	
C	-0.0282601866	 1.4627312958	 0.0291162298	-0.502235
C	-0.010987512	-0.0251596566	 0.0067619193	 0.397605
N	-0.0535637699	-0.7251158161	-1.0740002491	-0.250305
N	 0.0266403338	-2.0400295135	-0.6642163443	-0.320914
C	 0.0223432867	-2.1969320959	 0.7141787172	 0.447284
N	 0.0127469443	-3.2181365186	 1.4665319277	-0.552932
N	 0.0538378764	-0.8395013819	 1.1503928083	-0.181783
C	 0.1297746886	-0.3754978328	 2.4668003202	 0.166139
O	 0.1769144303	-1.0590119772	 3.4494323866	-0.255094
H	 0.8820492645	 1.8748461306	 0.4780047376	 0.1503
H	-0.0976058081	 1.8138326213	-1.0012574125	 0.16448
H	-0.8836764441	 1.8516573273	 0.5915904989	 0.149829
H	-0.2075261889	-2.7614824635	-1.3230521631	 0.273682
H	-0.0050287031	-4.0743094196	 0.9149656603	 0.21644
H	 0.1440112583	 0.7288464306	 2.4898783831	 0.097504
82.6096	145.5899	210.2776	216.9699	228.4668	263.1278	304.0212	372.4451	466.1942	526.7025	630.5877	655.4088	728.3606	760.9531	782.5629	812.3661	996.3694	1017.6436	1062.2832	1066.8318	1083.7135	1121.7543	1253.2408	1356.5717	1391.4267	1398.0551	1426.7032	1461.1512	1477.6169	1484.6018	1683.6774	1746.8845	1848.135	2975.8103	3038.8698	3093.0421	3150.1779	3503.9263	3689.1535
CC1=NNC(=N)N1C=O	CC1=NN[C@@H]([NH])N1C=O	
InChI=1S/C4H6N4O/c1-3-6-7-4(5)8(3)2-9/h2H,1H3,(H2,5,7)	InChI=1S/C4H7N4O/c1-3-6-7-4(5)8(3)2-9/h2,4-5,7H,1H3/t4-/m1/s1
