21
gdb 118137	1.77219	1.55648	0.96286	1.4999	74.59	-0.2273	0.0646	0.2919	1284.0317	0.180996	-461.319433	-461.309342	-461.308398	-461.35518	36.971	
C	 0.1384107622	-0.509324512	 0.8903270174	-0.251113
O	 1.1580250203	-0.6730221161	-0.0848268978	-0.245883
C	 0.7100001797	-0.5708212242	-1.4300653868	-0.110199
C	-0.0533833036	-1.7871897109	-1.9885446773	 0.061771
O	-0.5695342649	-1.3913219879	-3.2629005401	-0.424156
C	 0.6930045762	-3.1051517323	-2.1274243922	-0.085117
C	 2.2001743198	-3.2102995802	-2.3649271105	-0.36076
C	 1.5850760039	-3.7867883337	-1.1141788526	 0.133983
O	 1.8639714658	-3.3051553133	 0.1561168437	-0.440531
H	-0.4042362672	 0.4316822865	 0.7282855495	 0.12206
H	-0.5761990908	-1.3413849973	 0.8876806646	 0.131464
H	 0.633742582	-0.4752139968	 1.8628922193	 0.141167
H	 0.0518734762	 0.3006427351	-1.5416302199	 0.113159
H	 1.6066883	-0.389929648	-2.0324564833	 0.108242
H	-0.9454079147	-1.9555824052	-1.3728266571	 0.095327
H	 0.1528661321	-1.4726154799	-3.8962846999	 0.283904
H	 0.0894529381	-3.795942637	-2.7124413482	 0.096511
H	 2.5690556773	-3.8662625479	-3.1467455755	 0.110498
H	 2.79386615	-2.3115654639	-2.2269538822	 0.116501
H	 1.4880802094	-4.8679225868	-1.0757443837	 0.101899
H	 1.820091688	-2.3337095284	 0.1410952127	 0.301272
41.4265	61.2534	126.26	168.4538	206.4993	244.7816	265.4449	309.1247	352.7781	416.9581	421.6274	496.4104	540.1821	598.0654	640.1927	745.3144	803.3501	849.9232	933.3977	953.0156	975.4841	1020.0906	1039.4992	1046.4654	1092.056	1125.4973	1140.2145	1165.8124	1173.1124	1180.6311	1216.5285	1259.9199	1262.9858	1304.8701	1365.4496	1374.6332	1382.7243	1414.7692	1423.4878	1469.5654	1479.9691	1491.1719	1496.0222	1502.3662	1509.293	3005.2288	3024.0944	3034.8936	3069.5177	3082.5513	3122.7838	3125.3197	3128.2311	3152.9065	3208.0398	3611.9593	3795.2738
COCC(O)C1CC1O	COC[C@@H](O)[C@H]1C[C@H]1O	
InChI=1S/C6H12O3/c1-9-3-6(8)4-2-5(4)7/h4-8H,2-3H2,1H3	InChI=1S/C6H12O3/c1-9-3-6(8)4-2-5(4)7/h4-8H,2-3H2,1H3/t4-,5+,6+/m0/s1
