22
gdb 58256	2.70326	1.08058	0.86343	1.0901	78.94	-0.2256	0.0615	0.2871	1414.3508	0.191233	-441.443363	-441.432561	-441.431616	-441.479201	39.48	
C	-1.5015821327	 0.3353225827	 3.5482385072	-0.408281
C	-1.1156117746	-0.8967349074	 2.7343589934	 0.113088
O	-1.1228018492	-2.0801500826	 3.5251620856	-0.425579
C	-1.9982511578	-1.0622003103	 1.4767840922	 0.084093
O	-1.9587279069	 0.1213481142	 0.6759307035	-0.434704
C	-1.5931228575	-2.2776508914	 0.6707331826	 0.002429
C	-2.262383284	-3.5967523177	 0.8354396543	-0.243468
N	-2.4203505407	-2.8398172464	-0.3978832718	-0.093315
C	-3.7268525803	-2.2596598498	-0.6814508919	-0.307787
H	-0.8270879974	 0.4546679131	 4.4002323465	 0.120484
H	-1.4676183136	 1.2342426877	 2.9292545493	 0.135208
H	-2.5254048709	 0.2353145952	 3.9326699124	 0.103005
H	-0.0738414394	-0.7959832666	 2.398318677	 0.079921
H	-1.9818956973	-2.1372878032	 3.9578577047	 0.277688
H	-3.042641268	-1.1481382341	 1.8007585981	 0.074439
H	-1.1267317853	 0.1164038135	 0.1890296438	 0.282364
H	-0.5283370484	-2.2807627781	 0.4239884108	 0.081021
H	-1.6921434484	-4.5196661788	 0.7737240356	 0.11582
H	-3.11003741	-3.6352104542	 1.5200141947	 0.095651
H	-4.3362963234	-2.0479660003	 0.2110117017	 0.097305
H	-3.5958807525	-1.3237154672	-1.2306774754	 0.132126
H	-4.2874778919	-2.9597229983	-1.3089517544	 0.118491
54.0048	82.118	126.2018	190.3132	205.9804	229.6175	248.2475	263.7391	284.8543	328.5662	376.4056	383.1189	418.8754	476.7428	512.1749	585.1659	757.3831	856.0571	873.462	917.0971	955.7957	1032.0286	1046.7332	1057.2838	1075.6984	1106.4004	1120.5959	1129.5941	1144.8337	1162.3574	1188.0258	1204.6427	1238.7945	1260.2159	1318.706	1337.5564	1388.0873	1395.1516	1406.5278	1417.115	1434.67	1451.3683	1485.895	1489.2281	1497.3681	1504.793	1515.4713	2977.3564	3010.9231	3024.4748	3040.8489	3068.4335	3071.9828	3084.4618	3101.0126	3117.0182	3138.8273	3173.3183	3797.1744	3800.8267
CC(O)C(O)C1CN1C	C[C@@H](O)[C@@H](O)[C@H]1CN1C	
InChI=1S/C6H13NO2/c1-4(8)6(9)5-3-7(5)2/h4-6,8-9H,3H2,1-2H3	InChI=1S/C6H13NO2/c1-4(8)6(9)5-3-7(5)2/h4-6,8-9H,3H2,1-2H3/t4-,5-,6-,7?/m1/s1
