23
gdb 100525	2.84469	0.85729	0.83362	1.2377	82.2	-0.2367	-0.0107	0.226	1566.2659	0.20219	-425.451407	-425.439746	-425.438802	-425.489124	40.975	
C	-0.0442811598	 1.4958127148	 0.0179080999	-0.390582
C	 0.0311942198	-0.0463637126	 0.0083806465	-0.059206
C	 0.6735112695	-0.5675407693	-1.2804402178	-0.388655
C	 0.8222449425	-0.4838134934	 1.2441271594	 0.379302
O	 2.0295610403	-0.5919770644	 1.2159646201	-0.334817
C	 0.027273422	-0.7600619372	 2.5164494278	-0.074265
C	-0.569581522	-2.1820121895	 2.4537699877	-0.400675
C	 0.900231567	-0.576073577	 3.756834287	-0.080871
O	 0.0684108409	-0.7470409325	 4.8970035898	-0.428241
H	 0.9592620273	 1.9254522254	-0.0625040814	 0.133863
H	-0.6378755235	 1.8513707117	-0.8297031808	 0.120499
H	-0.5056656774	 1.8788395871	 0.9339318444	 0.119625
H	-0.9908701854	-0.4343927887	 0.0983164617	 0.079827
H	 1.7158594432	-0.2448459374	-1.3402864643	 0.138182
H	 0.6621783156	-1.6611322724	-1.3171398296	 0.115423
H	 0.1378578639	-0.1916897453	-2.1575870143	 0.107563
H	-0.8055730992	-0.0467823516	 2.5720095261	 0.091023
H	 0.2263417362	-2.927286652	 2.3513021938	 0.126013
H	-1.1150755208	-2.3851394311	 3.3772366329	 0.144861
H	-1.2567602167	-2.2987468864	 1.6106981667	 0.116243
H	 1.7203450926	-1.3064121365	 3.7358935313	 0.105274
H	 1.3566789033	 0.4248715721	 3.7420556568	 0.091233
H	 0.6254643304	-0.7193510135	 5.6798517464	 0.288382
31.2415	53.3043	97.9166	156.2493	187.4125	204.5013	225.4784	236.3125	247.7065	253.1488	297.2992	313.5768	352.0779	404.7665	484.674	647.3453	748.7246	787.9343	857.1836	896.9451	932.5681	933.3715	973.0352	1017.1735	1046.3805	1074.2648	1088.1597	1117.4575	1141.8537	1166.51	1198.1966	1249.4418	1264.2338	1312.0314	1331.0265	1351.7763	1378.6129	1394.6113	1398.8909	1417.0157	1455.2931	1485.5021	1488.2185	1492.4147	1501.0971	1505.2206	1511.2312	1519.0141	1793.7282	2989.7662	3020.772	3030.5752	3033.6019	3038.0787	3041.7687	3042.3659	3103.3702	3107.8272	3108.228	3111.882	3127.9438	3136.4599	3836.4741
CC(C)C(=O)C(C)CO	CC(C)C(=O)[C@@H](C)CO	
InChI=1S/C7H14O2/c1-5(2)7(9)6(3)4-8/h5-6,8H,4H2,1-3H3	InChI=1S/C7H14O2/c1-5(2)7(9)6(3)4-8/h5-6,8H,4H2,1-3H3/t6-/m0/s1
