20
gdb 124585	3.63262	0.99304	0.94613	4.3804	82.25	-0.2408	0.0104	0.2512	1376.011	0.170442	-399.349379	-399.339736	-399.338792	-399.385205	34.355	
C	 0.2184734571	 1.6147850021	-0.0984744731	-0.389091
C	 0.0410385652	 0.0982337695	 0.0273642361	 0.054789
C	 0.3855804918	-0.6459726839	-1.2667356704	-0.38909
N	 0.812424878	-0.4277787212	 1.1556144522	 0.070677
C	 2.1522204358	-0.4374724478	 1.3660437815	-0.192549
C	 2.3135859013	-1.0558379547	 2.5857179882	 0.302878
C	 3.5603465351	-1.3589881734	 3.3506666346	-0.482723
N	 1.0747499839	-1.3878424277	 3.0509463763	-0.255215
N	 0.1735741259	-1.0089307675	 2.1887919941	-0.14929
H	 1.2492466419	 1.8747442675	-0.3609341676	 0.120633
H	-0.4350052014	 2.0020012268	-0.885595649	 0.125998
H	-0.0353201561	 2.1151166353	 0.8395096843	 0.138424
H	-0.9937922372	-0.1209543119	 0.3035048995	 0.121496
H	 1.4219478254	-0.4616782022	-1.5682911599	 0.120633
H	 0.2484013416	-1.7233222914	-1.1440287145	 0.138425
H	-0.2645534567	-0.3039722255	-2.0772245149	 0.125998
H	 2.8560201451	-0.0227903163	 0.6642920495	 0.137118
H	 3.5481858494	-0.8721685532	 4.3310867173	 0.140753
H	 3.6629195174	-2.4348791494	 3.5247415415	 0.14077
H	 4.4460927763	-1.0151654951	 2.8103625743	 0.119365
33.5064	44.9215	101.5671	179.3159	223.9323	256.0478	266.5881	312.1289	358.5675	436.2631	491.4247	605.8252	677.3302	717.3758	724.9627	784.7915	894.866	935.6681	953.36	996.6834	1037.952	1058.6402	1065.3803	1102.9386	1123.575	1147.1245	1196.1001	1258.2216	1286.0355	1354.544	1354.7986	1383.8861	1401.6459	1421.0607	1421.3751	1471.7926	1478.5753	1484.9695	1487.1609	1498.3886	1504.4022	1509.8062	1593.4219	3039.1144	3040.5925	3042.7048	3081.073	3097.7875	3107.897	3118.2434	3120.0923	3125.039	3127.1461	3278.6151
CC(C)N1C=C(C)N=N1	CC(C)n1cc(C)nn1	
InChI=1S/C6H11N3/c1-5(2)9-4-6(3)7-8-9/h4-5H,1-3H3	InChI=1S/C6H11N3/c1-5(2)9-4-6(3)7-8-9/h4-5H,1-3H3
