19
gdb 38310	2.86954	1.92519	1.90594	0.9833	72.09	-0.2329	0.0722	0.3051	853.5156	0.164141	-422.99599	-422.990091	-422.989146	-423.025829	26.365	
C	-0.106556791	 1.5527150311	 0.0893306848	-0.227223
C	 1.4391230886	 1.42435183	 0.0193808207	 0.072227
O	 1.3060842567	 0.1668532634	 0.7535541015	-0.293472
C	 0.0232758657	 0.0189999416	 0.0677001932	 0.074967
C	 0.3097839087	-0.4624982576	-1.4129936581	 0.078678
C	 1.8322629417	-0.4492819085	-1.5808909295	-0.203475
C	 1.9580083781	 1.0856635272	-1.4318315983	-0.064507
C	 0.936024555	 1.4914959149	-2.5036509261	-0.096507
O	-0.1237239731	 0.5219554406	-2.3724068241	-0.278345
H	-0.4084617034	 1.9019576355	 1.0778939626	 0.104224
H	-0.6746924686	 2.0527722752	-0.6900645928	 0.120644
H	 2.0679335832	 2.1444696746	 0.5465488802	 0.078945
H	-0.668040387	-0.6194684671	 0.6213939534	 0.074925
H	-0.1999834917	-1.3960753999	-1.6560309367	 0.074822
H	 2.3715526721	-1.0122819958	-0.8250891413	 0.122477
H	 2.1209938538	-0.7838285856	-2.5809002119	 0.09403
H	 2.9558211204	 1.4872835062	-1.6170833839	 0.068835
H	 0.5262833191	 2.4988924698	-2.3726428844	 0.099861
H	 1.3700123316	 1.4266167744	-3.5099530494	 0.098893
265.5375	372.4731	394.1566	493.8172	515.672	535.8196	538.7885	721.0955	754.7208	760.9332	825.6938	879.2955	893.2774	900.7301	903.9268	930.6546	940.7128	949.0629	984.5929	1002.0567	1026.2211	1043.0977	1087.2134	1103.248	1122.525	1157.9969	1186.883	1194.471	1222.2629	1252.2607	1286.4641	1291.2614	1295.2181	1318.0812	1326.3045	1337.0202	1355.3894	1382.1165	1483.6223	1498.2207	1533.9482	3016.0119	3061.1966	3074.2542	3084.6111	3087.7348	3097.1846	3102.0393	3109.6159	3173.655	3176.586
C1C2OC1C1CC2CO1	C1[C@H]2O[C@@H]1[C@@H]1C[C@H]2CO1	
InChI=1S/C7H10O2/c1-4-3-8-6(1)7-2-5(4)9-7/h4-7H,1-3H2	InChI=1S/C7H10O2/c1-4-3-8-6(1)7-2-5(4)9-7/h4-7H,1-3H2/t4-,5+,6-,7-/m0/s1
