15
gdb 126745	4.2048	1.10378	0.99194	7.2931	71.51	-0.2446	-0.0783	0.1663	1195.5075	0.112624	-450.116581	-450.108553	-450.107609	-450.150395	28.585	
C	-0.0735373412	 1.6122635766	 0.0497409287	-0.378423
C	-0.0174676723	 0.0888523193	-0.0454586585	-0.14926
N	-1.3499808305	-0.5143112432	-0.0705964527	-0.015447
C	-1.9606380173	-0.991111169	-1.1850223947	 0.121542
N	-3.1660463531	-1.4440424407	-1.2000584687	-0.300865
C	-3.8678798484	-1.3199679402	-0.0002377959	 0.415329
O	-5.0653362756	-1.3244851122	 0.0873083073	-0.306892
N	-3.0782727274	-1.2114918833	 1.2147188727	-0.194881
N	-1.9064452209	-0.7710590164	 1.1639381916	-0.044641
H	 0.9409094988	 2.0197392292	 0.0795778917	 0.136218
H	-0.5929711766	 2.0441392799	-0.8107008046	 0.134781
H	-0.5952991991	 1.9197270179	 0.9599120917	 0.152461
H	 0.5025970712	-0.2319720076	-0.9531245069	 0.131077
H	 0.507311913	-0.3365698099	 0.8131830836	 0.151599
H	-1.3512981705	-1.0066922204	-2.0895323356	 0.147402
44.3764	63.0104	144.5198	221.5747	349.177	373.0449	412.749	485.9253	537.1071	551.0662	660.4152	735.8897	785.6205	809.1287	834.1509	904.5114	970.5681	983.5653	1072.0875	1104.2409	1148.8231	1230.1673	1283.2115	1372.0042	1394.8269	1415.1646	1438.8654	1478.9088	1490.9924	1503.8126	1535.6396	1655.393	1839.0134	3047.5245	3063.8237	3109.8081	3124.2376	3126.4854	3134.9618
CCN1C=NC(=O)N=N1	CCn1cnc(=O)nn1	
InChI=1S/C4H6N4O/c1-2-8-3-5-4(9)6-7-8/h3H,2H2,1H3	InChI=1S/C4H6N4O/c1-2-8-3-5-4(9)6-7-8/h3H,2H2,1H3
