23
gdb 122184	3.44099	0.7397	0.70507	2.5755	82.29	-0.2405	0.0785	0.319	1715.1535	0.203979	-425.410782	-425.400231	-425.399287	-425.447281	37.982	
C	 0.0209224434	 1.7576581978	-0.2729949854	-0.437804
C	 0.005961315	 0.2419495579	-0.1268350109	 0.438669
C	-1.4022239094	-0.3607815238	-0.1339450569	-0.235745
C	-2.2887143783	 0.1084324361	 1.0243681296	-0.174019
C	-3.5947974993	-0.6701362206	 1.108610452	-0.075646
O	-4.3566005316	-0.134127391	 2.1801999386	-0.42149
C	 1.0290741059	-0.5199770529	-1.0127314981	-0.338073
C	 1.6838518844	-0.9217193268	 0.3213667483	-0.062478
O	 0.7248278499	-0.1618742989	 1.0808931037	-0.320927
H	 1.0496483533	 2.1285128201	-0.2873972242	 0.114848
H	-0.4703523085	 2.0627312631	-1.2038622987	 0.111977
H	-0.4971923517	 2.2363591284	 0.5624056417	 0.131451
H	-1.8770631089	-0.1337726979	-1.098662187	 0.091719
H	-1.2981211071	-1.4526324082	-0.0869095299	 0.090834
H	-1.7435366642	-0.0085496023	 1.9668806949	 0.127133
H	-2.5344110729	 1.1712927406	 0.9243342352	 0.105095
H	-4.1408107271	-0.5887837766	 0.1533326726	 0.078963
H	-3.3798657435	-1.7398170743	 1.2678815663	 0.083321
H	-5.1742229363	-0.6354719102	 2.2479122528	 0.283927
H	 0.6141000206	-1.337952523	-1.604804866	 0.103791
H	 1.6382744817	 0.1162842651	-1.6574015402	 0.105294
H	 1.6468609788	-1.9911452353	 0.5645238607	 0.09879
H	 2.7081725457	-0.5632768276	 0.4804524906	 0.100371
51.2929	72.6667	90.524	125.7162	142.2756	223.2175	262.9402	280.4059	301.4233	345.2248	376.3393	468.4381	499.3822	693.86	758.9937	786.4091	851.4715	862.3678	897.849	939.068	968.7938	992.2757	1019.37	1027.6621	1040.2256	1067.6335	1081.6563	1161.0746	1163.1373	1191.9935	1209.3893	1223.2533	1244.6862	1268.6092	1273.5379	1309.2742	1317.2785	1333.8729	1353.5468	1392.0403	1408.7815	1464.1227	1471.37	1486.2813	1490.1557	1499.6544	1501.7948	1528.7595	1532.4748	2952.6995	2978.4548	3007.9231	3012.4133	3035.7265	3043.1522	3048.6188	3049.7917	3074.1018	3096.4028	3106.5205	3119.6634	3128.5258	3829.9988
CC1(CCCO)CCO1	C[C@@]1(CCCO)CCO1	
InChI=1S/C7H14O2/c1-7(3-2-5-8)4-6-9-7/h8H,2-6H2,1H3	InChI=1S/C7H14O2/c1-7(3-2-5-8)4-6-9-7/h8H,2-6H2,1H3/t7-/m1/s1
