22
gdb 109214	3.15083	1.09189	0.98346	1.5359	88.77	-0.2204	0.0234	0.2439	1352.364	0.194482	-367.211042	-367.201888	-367.200943	-367.244832	35.286	
C	 0.0693751568	 1.5208479434	 0.2547837377	-0.374166
C	-0.0281189481	 0.0226184965	-0.0836152116	-0.29651
C	-1.4338222533	-0.5001307645	-0.0807616051	 0.392394
C	-2.1155911349	-1.014715171	-1.1104450587	-0.196792
C	-3.5166112648	-1.4485133981	-0.7370027433	-0.30161
C	-3.5890122975	-1.1604855401	 0.7665111883	 0.342215
C	-4.9080498911	-0.7885453666	 1.3917504366	-0.490443
N	-2.6158296445	-1.9724292786	 1.5340719673	-0.37059
C	-2.2817827541	-0.563382959	 1.1539294253	-0.213186
H	 1.1115068805	 1.8548135335	 0.2448092242	 0.112809
H	-0.4882374853	 2.1220011532	-0.4702239088	 0.11925
H	-0.336938572	 1.736497374	 1.2485147285	 0.115737
H	 0.4214447538	-0.1577729964	-1.0664825527	 0.100717
H	 0.5704840799	-0.5445293165	 0.6427082981	 0.108746
H	-1.7132506396	-1.1506284815	-2.1091664096	 0.084486
H	-4.2803196786	-0.8825014772	-1.2887785322	 0.09754
H	-3.6920924005	-2.51021472	-0.9489636633	 0.114797
H	-5.60740764	-1.6330745091	 1.3717942692	 0.123881
H	-4.7801870634	-0.4853024354	 2.4365816469	 0.110957
H	-5.3796627656	 0.0431218316	 0.8568001953	 0.122644
H	-2.9158269123	-1.9754793177	 2.5094121142	 0.21725
H	-2.1901987954	 0.1734308992	 1.9461884736	 0.079874
70.0761	109.7617	189.4692	208.6803	231.9825	278.9824	291.507	375.862	403.4119	429.0844	549.6321	627.3112	637.9636	758.7793	790.6868	821.201	844.0726	875.5302	909.6773	948.2219	958.7737	976.1331	990.2211	1026.9435	1062.7498	1071.2072	1096.7389	1112.887	1157.691	1192.8662	1199.0528	1258.7759	1272.3847	1290.0149	1344.9411	1359.8136	1370.1353	1407.7578	1414.148	1435.0946	1469.4199	1480.6144	1486.5477	1498.5239	1500.7687	1506.6266	1703.0013	3008.1003	3011.4398	3021.6416	3035.3867	3052.6161	3060.5771	3083.1305	3094.7102	3104.2363	3108.8083	3155.9281	3182.5941	3452.906
CCC1=CCC2(C)NC12	CCC1=CC[C@@]2(C)N[C@@H]12	
InChI=1S/C8H13N/c1-3-6-4-5-8(2)7(6)9-8/h4,7,9H,3,5H2,1-2H3	InChI=1S/C8H13N/c1-3-6-4-5-8(2)7(6)9-8/h4,7,9H,3,5H2,1-2H3/t7-,8+/m0/s1
