19
gdb 101135	3.53881	1.01356	0.88726	1.6086	71.01	-0.2388	0.0554	0.2942	1318.0699	0.1583	-460.101005	-460.092129	-460.091185	-460.135076	33.424	
O	 0.1324921072	 1.4187641167	-0.1239198141	-0.423887
C	 0.107403224	 0.0107198651	-0.0552380214	-0.061627
C	-1.3304284731	-0.5064900265	 0.069618574	-0.054245
O	-2.1116109714	 0.0237315091	-1.004204155	-0.43564
C	-1.4038187264	-2.0081155771	 0.1587333038	 0.285672
C	-1.631455719	-2.9544899147	-1.0092005492	-0.366314
C	-2.5618793195	-2.9765922555	 0.1660706602	 0.054527
O	-2.0187253897	-3.7578535935	 1.2317107866	-0.284468
C	-0.9048284234	-2.8336509403	 1.3480016633	-0.137865
H	-0.6129339376	 1.6638233425	-0.6874450359	 0.285176
H	 0.5753484075	-0.4517069787	-0.9441324218	 0.077265
H	 0.7002415391	-0.2881750014	 0.8167049075	 0.110971
H	-1.7727390588	-0.0638792661	 0.970779425	 0.102789
H	-1.7523905596	-0.3341210209	-1.8253890836	 0.283916
H	-2.0473414816	-2.4960683162	-1.9016468286	 0.108553
H	-0.9672932759	-3.7957655398	-1.1887204082	 0.118572
H	-3.6360969257	-2.8404197509	 0.1223403961	 0.115212
H	 0.0669114001	-3.3328834076	 1.256314428	 0.108757
H	-0.9541171363	-2.2916121643	 2.3000796232	 0.112636
48.0131	117.0424	130.1747	233.8619	265.3346	336.5041	342.2219	372.6775	437.2056	471.9546	503.4501	522.212	756.8231	760.8626	846.8729	875.5734	928.2284	932.9886	985.8268	1000.905	1027.7291	1040.2605	1073.3925	1077.6733	1086.8852	1096.6729	1111.8083	1160.8606	1198.5863	1213.4312	1269.5429	1295.1373	1309.8895	1321.7377	1377.4447	1403.3421	1424.7602	1441.5982	1481.3043	1506.1903	1516.7637	2935.4981	3019.4541	3039.7341	3064.2981	3069.2793	3112.6701	3186.0196	3204.6756	3767.0872	3783.0032
OCC(O)C12CC1OC2	OC[C@@H](O)[C@]12C[C@H]1OC2	
InChI=1S/C6H10O3/c7-2-4(8)6-1-5(6)9-3-6/h4-5,7-8H,1-3H2	InChI=1S/C6H10O3/c7-2-4(8)6-1-5(6)9-3-6/h4-5,7-8H,1-3H2/t4-,5-,6-/m1/s1
