20
gdb 7847	4.12616	1.06383	1.01688	2.7814	75.98	-0.2353	-0.0069	0.2284	1254.0621	0.174896	-349.017537	-349.008098	-349.007154	-349.052877	33.564	
C	-0.0929589227	 1.4784888466	-0.1486147165	-0.40387
C	 0.3299221436	 0.0262887898	-0.1020565827	-0.010569
C	 1.772122994	-0.3607782713	 0.1240465192	-0.291207
C	 0.7311477814	-0.6771810233	 1.1756760677	 0.012784
C	 0.7294943967	 0.0104157871	 2.5345628621	-0.310879
C	 1.5774115736	-0.7933173861	 3.5208903942	 0.388158
C	 3.0438489756	-0.4175489258	 3.6278742564	-0.479048
O	 1.0982044173	-1.7025313753	 4.1582566703	-0.304197
H	 0.4993795881	 2.1019036157	 0.5275698235	 0.114373
H	 0.0345272868	 1.8841557875	-1.1581710838	 0.119154
H	-1.1469353503	 1.598027291	 0.1262935408	 0.119768
H	-0.2135614632	-0.6043348228	-0.8015180642	 0.087519
H	 2.2025141416	-1.1727507852	-0.4518184398	 0.11313
H	 2.4671291452	 0.4471322385	 0.3360161898	 0.105926
H	 0.4296537522	-1.7192450366	 1.2408467189	 0.100898
H	 1.1093457307	 1.0331332649	 2.4487223746	 0.096798
H	-0.2899634862	 0.0483223266	 2.9320662822	 0.121026
H	 3.1386176391	 0.5915485435	 4.0466668917	 0.137404
H	 3.568175757	-1.127950357	 4.2681572153	 0.139483
H	 3.5055716294	-0.3935510279	 2.6348803003	 0.143348
27.1089	66.7079	128.6498	146.088	184.3726	214.0103	303.338	365.332	405.942	468.9596	532.8916	585.846	758.9716	798.8602	819.6826	862.7991	872.1378	925.5107	937.7375	1005.8686	1029.8182	1064.3124	1078.2211	1111.3451	1137.4846	1157.4125	1197.1371	1201.1536	1244.5734	1264.4048	1302.8111	1378.8105	1383.639	1413.0198	1426.2244	1461.713	1472.3862	1476.8873	1492.468	1494.4423	1504.6704	1813.9363	3030.7162	3033.8609	3043.7367	3089.2998	3093.5961	3096.5648	3105.3891	3121.7617	3132.7074	3146.1032	3151.5721	3207.2831
CC1CC1CC(C)=O	C[C@H]1C[C@H]1CC(=O)C	
InChI=1S/C7H12O/c1-5-3-7(5)4-6(2)8/h5,7H,3-4H2,1-2H3	InChI=1S/C7H12O/c1-5-3-7(5)4-6(2)8/h5,7H,3-4H2,1-2H3/t5-,7-/m0/s1
