18
gdb 15728	3.34765	1.57898	1.22666	2.5224	63.68	-0.2401	0.0676	0.3077	1001.6957	0.153695	-422.065157	-422.056586	-422.055642	-422.098694	30.572	
O	-0.2171832604	 1.4762691094	 0.0564457918	-0.428361
C	-0.0048650022	 0.0713493039	 0.1444270315	-0.104914
C	-1.3556273705	-0.5958294587	-0.0543565204	 0.004071
C	-1.9940904894	-0.3667127925	-1.4306856594	-0.062649
O	-2.9537615766	-1.4125095655	-1.5929944637	-0.266131
C	-2.6678335327	-2.470933183	-0.6876274927	-0.082422
C	-1.3470263955	-2.12900305	 0.0171213422	 0.063452
O	-0.2093532342	-2.5894831445	-0.7055147267	-0.436768
H	 0.6402569285	 1.9102457296	 0.0843138085	 0.28752
H	 0.6961166586	-0.2801356567	-0.6232017435	 0.110075
H	 0.4094749513	-0.2084379281	 1.1262130399	 0.084681
H	-2.0416667299	-0.2266115072	 0.7174294847	 0.088302
H	-2.5085651139	 0.5936739145	-1.5102463236	 0.114832
H	-1.2321328168	-0.4223693058	-2.2218792719	 0.096493
H	-3.4868445348	-2.5678977492	 0.040738628	 0.093483
H	-2.5907525208	-3.420734089	-1.2356228107	 0.086353
H	-1.3270441495	-2.5043598566	 1.050059285	 0.066477
H	-0.2812051911	-3.5436400405	-0.8043498689	 0.285504
63.3514	100.9476	138.8044	180.2585	262.2715	267.9309	308.0348	359.6521	445.5347	508.5302	670.9297	772.8086	865.4021	867.9996	927.9569	943.8633	1003.6637	1013.1198	1063.7979	1078.7567	1123.2126	1136.7706	1142.205	1188.1075	1223.1014	1227.2181	1260.4244	1271.7713	1314.4031	1341.2194	1350.9093	1378.3579	1391.9564	1431.4645	1458.0523	1508.2272	1520.7354	1527.087	2974.0468	2983.2596	2998.162	3006.6041	3021.4863	3033.913	3051.9853	3098.4479	3824.7883	3832.5857
OCC1COCC1O	OC[C@H]1COC[C@H]1O	
InChI=1S/C5H10O3/c6-1-4-2-8-3-5(4)7/h4-7H,1-3H2	InChI=1S/C5H10O3/c6-1-4-2-8-3-5(4)7/h4-7H,1-3H2/t4-,5+/m0/s1
