17
gdb 49149	4.59339	0.96686	0.85379	2.5891	80.13	-0.2554	-0.0661	0.1893	1318.1226	0.135543	-421.834051	-421.825989	-421.825045	-421.867244	29.877	
O	-0.0886466586	 0.011500821	 0.1256674497	-0.267372
C	-0.0045483221	 1.2159927119	 0.0271351678	 0.081315
C	 1.265165658	 1.9478329248	 0.0079511044	 0.219979
C	 1.3756994782	 3.2785110572	-0.1241324354	-0.239887
C	 2.7967235799	 3.6989796323	-0.1233950961	 0.443492
C	 3.2986620454	 4.8280318655	-0.9303444214	-0.244637
O	 3.1399977277	 4.9538831275	 0.4802584452	-0.273089
C	 3.6110493718	 2.4527971332	 0.2433462343	-0.328768
C	 2.6148013298	 1.2702107228	 0.1128958615	-0.322975
H	-0.9126573337	 1.8537744608	-0.0535603442	 0.071583
H	 0.5561853983	 3.9810557091	-0.2289108179	 0.120408
H	 4.3272459125	 4.7973321018	-1.289127516	 0.120641
H	 2.6123702577	 5.4189171522	-1.5366402494	 0.116605
H	 4.4981341043	 2.3327840126	-0.3822204031	 0.113546
H	 3.9517245303	 2.563409517	 1.2772114686	 0.13158
H	 2.6537353753	 0.5759069387	 0.9568133936	 0.130641
H	 2.8062308051	 0.6695869215	-0.7836872315	 0.126939
66.2546	102.3305	173.3482	208.8848	329.6361	337.575	402.472	446.2408	509.765	555.9731	717.7519	759.6094	834.9832	850.1067	885.7154	892.4949	921.7763	955.646	987.7419	1027.9995	1064.1278	1129.9825	1147.9269	1170.3602	1179.5691	1215.7622	1248.4594	1284.8512	1306.4943	1361.6891	1399.5964	1426.955	1478.7239	1496.5956	1524.3819	1676.2889	1783.2268	2885.3733	3046.8869	3063.941	3074.2516	3088.6648	3113.0884	3162.6076	3200.5008
O=CC1=CC2(CO2)CC1	O=CC1=C[C@]2(CO2)CC1	
InChI=1S/C7H8O2/c8-4-6-1-2-7(3-6)5-9-7/h3-4H,1-2,5H2	InChI=1S/C7H8O2/c8-4-6-1-2-7(3-6)5-9-7/h3-4H,1-2,5H2/t7-/m0/s1
