21
gdb 118173	4.39469	0.60093	0.5473	0.6518	85.66	-0.2474	0.0529	0.3004	2066.5852	0.178851	-424.19234	-424.180796	-424.179852	-424.231075	39.021	
C	-0.3110267395	 1.2765364019	-0.5380435698	-0.223449
O	-0.4031966384	-0.12731671	-0.5071433544	-0.237207
C	-0.9866707784	-0.6150876679	 0.6798481717	-0.06727
C	-1.0369905811	-2.1359338872	 0.6005673731	 0.109781
O	-1.5641670349	-2.5762717571	 1.8374500896	-0.443361
C	-1.8959977605	-2.6187134011	-0.5883918112	-0.356939
C	-2.0225406729	-4.072347185	-0.5911686358	-0.006955
C	-2.1040316475	-5.2734419045	-0.5257188094	 0.114831
C	-2.2143436022	-6.7256636427	-0.4916966152	-0.499138
H	 0.1534538365	 1.5538404816	-1.4874553607	 0.126991
H	-1.3022331641	 1.7526573332	-0.4736599664	 0.105275
H	 0.3077056044	 1.6624411534	 0.2873111333	 0.106254
H	-0.3988263758	-0.3191801132	 1.5631806615	 0.098902
H	-2.0074051655	-0.2188094843	 0.8142979443	 0.091474
H	-0.0112392248	-2.5094427663	 0.4539216394	 0.080511
H	-1.7378291342	-3.521091813	 1.7447900234	 0.285942
H	-2.8896168208	-2.1575633639	-0.5116668046	 0.124267
H	-1.4441004068	-2.2586066343	-1.5184831427	 0.14272
H	-3.1100269997	-7.0471601678	 0.0511581546	 0.148048
H	-2.2744953929	-7.1402546067	-1.5040292451	 0.151092
H	-1.347457431	-7.181087025	-0.0003855356	 0.148232
29.9379	46.6555	64.6095	96.8827	110.3081	171.1395	220.842	234.3925	265.8921	309.2224	372.5804	389.4757	406.7873	445.8143	480.2421	560.7905	774.0856	849.6185	921.6256	998.1442	1051.9054	1054.965	1057.4417	1092.0445	1124.6959	1162.7344	1171.736	1183.8991	1217.201	1229.4099	1249.4568	1287.3598	1309.9048	1372.1143	1401.4868	1415.9964	1455.6612	1466.7484	1478.5782	1479.5893	1481.5892	1485.4821	1503.9196	1527.0317	2364.0084	2960.1218	2973.5175	2979.1702	3004.5804	3016.2987	3024.7045	3027.4003	3080.6457	3087.7867	3088.6665	3114.1285	3775.2722
COCC(O)CC#CC	COC[C@@H](O)CC#CC	
InChI=1S/C7H12O2/c1-3-4-5-7(8)6-9-2/h7-8H,5-6H2,1-2H3	InChI=1S/C7H12O2/c1-3-4-5-7(8)6-9-2/h7-8H,5-6H2,1-2H3/t7-/m0/s1
