17
gdb 75431	2.96079	1.3376	1.05	5.8516	71.46	-0.2724	-0.0228	0.2495	1153.9432	0.135841	-458.994767	-458.986413	-458.985468	-459.028196	30.579	
C	 0.1835047905	 1.4930837781	 0.0660344581	-0.489461
C	 0.0068504016	 0.0069100853	-0.0239661694	 0.317791
C	 0.0185135611	-0.6950006796	-1.1586474675	-0.177351
C	-0.1236246151	-2.1867896557	-1.1142074137	-0.118451
O	 0.9717759147	-2.8669622356	-0.4587425941	-0.260717
C	 1.4872430528	-2.6013612315	 0.7604512201	 0.468212
O	 2.4128509711	-3.2445663951	 1.1571250499	-0.345706
O	 0.9854458984	-1.6198712655	 1.5471822518	-0.258948
C	-0.1462495845	-0.7758361231	 1.2572665228	-0.16307
H	 1.0748483933	 1.7442625551	 0.6541226249	 0.1464
H	 0.2842681082	 1.9467454637	-0.9228934138	 0.132074
H	-0.66925801	 1.9615303278	 0.5734055688	 0.134077
H	 0.1693608938	-0.2161265577	-2.1214052448	 0.10577
H	-1.062008036	-2.4885338282	-0.631682552	 0.123257
H	-0.1184091802	-2.6173271711	-2.1163902485	 0.132539
H	-0.1977146918	-0.1166196233	 2.1256824039	 0.128277
H	-1.0602561779	-1.3822333837	 1.2475089337	 0.125307
73.0102	94.9616	163.6479	197.3106	285.3926	324.1795	358.8619	403.3502	493.0302	533.7096	669.8416	694.5432	750.3594	760.2453	834.0169	870.0163	949.0824	983.9948	1023.0729	1056.885	1070.7624	1099.9371	1138.1977	1169.234	1221.2838	1276.9234	1280.665	1353.2125	1400.9511	1414.0436	1425.6373	1477.6001	1485.3933	1499.5904	1520.2862	1736.5974	1863.4913	3021.3199	3021.8795	3029.699	3071.6222	3112.7419	3119.3303	3121.0365	3176.3676
CC1=CCOC(=O)OC1	CC1=CCOC(=O)OC1	
InChI=1S/C6H8O3/c1-5-2-3-8-6(7)9-4-5/h2H,3-4H2,1H3	InChI=1S/C6H8O3/c1-5-2-3-8-6(7)9-4-5/h2H,3-4H2,1H3
