20
gdb 95846	2.28966	1.4262	1.12184	3.5796	78.79	-0.2723	0.0215	0.2939	1182.3568	0.172132	-403.182675	-403.174013	-403.173069	-403.215845	33.09	
C	 0.0118954259	 1.5415912524	 0.0569438461	-0.402205
C	 0.0192964275	 0.0263971876	-0.0627159976	 0.131854
C	 0.7586509966	-0.4875728463	-1.3021198318	-0.192874
C	 0.8534264829	-2.0195814232	-1.2879837498	-0.228817
C	 1.4613795044	-2.4963098725	 0.0358231625	-0.213451
C	 0.7114584256	-1.8743729272	 1.2287959812	-0.019489
O	 0.6422963863	-0.4671252243	 1.137235959	-0.262585
C	-0.6399187762	-2.4715821321	 1.3783429493	 0.267954
N	-1.691641877	-2.9376437113	 1.4904014794	-0.333585
H	 1.0349791617	 1.9272344159	 0.1049919159	 0.123898
H	-0.4880104034	 1.987937766	-0.8077099055	 0.118891
H	-0.5157160281	 1.8511924896	 0.9626486088	 0.129962
H	-1.0185101059	-0.3431780291	-0.0889143541	 0.090787
H	 0.2403517254	-0.1398404339	-2.2024422858	 0.101752
H	 1.7655514127	-0.0502749232	-1.3163597145	 0.100826
H	-0.147816565	-2.4526099683	-1.4066276933	 0.121304
H	 1.4544010698	-2.3787988084	-2.1291302527	 0.104149
H	 1.4470971863	-3.587558633	 0.1178895279	 0.117776
H	 2.5046558489	-2.1696177114	 0.1110949837	 0.112591
H	 1.2541457317	-2.0799160972	 2.1576351415	 0.131261
104.4478	109.8596	193.3088	219.7024	268.2888	304.3491	326.8522	407.6903	425.1656	477.7745	516.3028	607.113	682.3888	779.8795	830.2151	864.2352	868.9137	914.78	951.8003	981.9118	993.8758	1059.9638	1098.72	1107.9968	1138.1915	1160.6934	1215.1038	1226.9916	1284.46	1307.0486	1343.2539	1365.5209	1370.8548	1383.6367	1390.7921	1401.8759	1412.3342	1470.2752	1478.5028	1485.6184	1496.2139	1500.6977	2349.6068	2979.8119	3024.6495	3032.9023	3041.7783	3044.18	3061.8885	3075.1223	3082.2571	3094.4662	3117.5998	3125.4041
CC1CCCC(O1)C#N	C[C@H]1CCC[C@@H](O1)C#N	
InChI=1S/C7H11NO/c1-6-3-2-4-7(5-8)9-6/h6-7H,2-4H2,1H3	InChI=1S/C7H11NO/c1-6-3-2-4-7(5-8)9-6/h6-7H,2-4H2,1H3/t6-,7+/m0/s1
