16
gdb 37956	3.06349	2.03773	1.54392	3.9397	68.17	-0.237	-0.0104	0.2266	860.7675	0.125972	-437.802904	-437.796492	-437.795548	-437.833388	26.301	
C	 0.0293028167	 1.4107582106	-0.0126703729	-0.064487
C	 1.4613898941	 2.0586058774	 0.0873952037	-0.205172
N	 2.3180994888	 1.1347203147	 0.8334012012	-0.252023
C	 2.4842375422	 0.1124449435	 0.1263888239	 0.399579
O	 2.5471031535	-1.2030870646	 0.5454853548	-0.259579
C	 1.9104350346	-1.5813466349	-0.7044604534	 0.045215
C	 0.6918611804	-0.6865148698	-1.0364761349	 0.091513
O	-0.027742485	-0.0270009002	-0.0439182949	-0.241452
C	 2.0915413134	-0.2286911682	-1.3110700277	-0.320871
H	-0.5394237335	 1.6585822986	 0.8851929821	 0.131802
H	-0.4948744639	 1.8319737763	-0.8809861326	 0.100425
H	 1.8463325969	 2.282827946	-0.9168318263	 0.106405
H	 1.3701999379	 3.008453281	 0.6204500572	 0.114185
H	 2.0755584389	-2.5873838177	-1.064633107	 0.127016
H	 0.0986758713	-1.035544133	-1.8827466845	 0.104154
H	 2.5177715337	 0.1291917903	-2.2377861289	 0.12329
174.7123	260.3701	299.4605	339.3603	441.3245	529.0855	589.5229	641.4202	729.1574	738.7563	780.0205	820.6203	828.8804	854.4136	898.3334	956.3888	969.9677	994.8194	1046.6452	1064.0446	1067.0833	1099.3152	1100.1499	1139.8846	1180.8055	1240.4441	1247.9764	1277.2917	1315.8799	1340.9146	1373.0909	1409.7228	1491.9767	1506.1938	1781.1767	3002.2388	3020.1965	3089.6001	3102.7469	3119.7546	3207.6808	3224.0984
C1CN=C2OC3C(O1)C23	C1C[N][C]2O[C@H]3[C@@H](O1)[C@@H]23	
InChI=1S/C6H7NO2/c1-2-8-4-3-5(4)9-6(3)7-1/h3-5H,1-2H2	InChI=1S/C6H7NO2/c1-2-8-4-3-5(4)9-6(3)7-1/h3-5H,1-2H2/t3-,4+,5-/m1/s1
