20
gdb 61860	1.96471	1.17433	0.83751	3.7933	78.36	-0.2516	-0.0209	0.2307	1450.7276	0.167072	-440.312057	-440.301285	-440.30034	-440.349344	37.154	
C	-0.1045840767	 1.6749067171	 0.0624361079	-0.400254
C	 0.0086198272	 0.156243706	-0.003691026	 0.124964
C	-1.3503540866	-0.5426394254	-0.023393796	-0.310548
C	-1.2576516221	-2.0528408443	 0.1816835488	 0.396757
C	-2.4716037675	-2.8603886752	-0.228934765	-0.478058
O	-0.2710856174	-2.5692173056	 0.6567517752	-0.302937
O	 0.6989070359	-0.1821004715	-1.2159844325	-0.205594
C	 1.784519345	-0.9797878343	-1.1390779446	 0.122055
N	 2.412016712	-1.2812456242	-2.1924376347	-0.451731
H	 0.8893725335	 2.1296047713	 0.0521418865	 0.130091
H	-0.6630897347	 2.0587938674	-0.7966397965	 0.13148
H	-0.6184534965	 1.9841003425	 0.9778947765	 0.116378
H	 0.5815716127	-0.2186481902	 0.8520773618	 0.102581
H	-1.9890423739	-0.1479926191	 0.7795104449	 0.127218
H	-1.8705470565	-0.3219627026	-0.9625945447	 0.129825
H	-3.3924814791	-2.4132602935	 0.1607604559	 0.135474
H	-2.5539391355	-2.854934612	-1.322471414	 0.154039
H	-2.3741245911	-3.8891233126	 0.1194264624	 0.145864
H	 2.01680618	-1.3061564934	-0.1191288341	 0.106177
H	 3.1979070712	-1.8848027806	-1.9595256317	 0.22622
40.5802	60.7513	73.3408	125.9467	132.8712	164.2312	219.4409	266.5009	301.2892	326.8519	444.1354	475.6939	500.488	580.2344	613.4406	812.6607	815.6621	836.3559	885.6616	934.5537	967.6252	989.9673	1033.5775	1087.0996	1121.5884	1135.1112	1154.5582	1188.4469	1236.9401	1302.5624	1307.8166	1377.1852	1385.0363	1394.3999	1411.7728	1435.2166	1436.2697	1462.9378	1475.1512	1485.5189	1498.9584	1738.0852	1807.955	3022.9384	3036.4005	3042.5209	3045.8377	3061.15	3075.4868	3097.2579	3116.2624	3123.6315	3153.9892	3516.2374
CC(CC(C)=O)OC=N	C[C@@H](CC(=O)C)O[CH][NH]	
InChI=1S/C6H11NO2/c1-5(8)3-6(2)9-4-7/h4,6-7H,3H2,1-2H3	InChI=1S/C6H11NO2/c1-5(8)3-6(2)9-4-7/h4,6-7H,3H2,1-2H3/t6-/m0/s1
