18
gdb 117515	2.32367	1.0672	0.81216	3.0092	74.	-0.2432	-0.0061	0.237	1444.0595	0.146557	-435.302051	-435.291728	-435.290783	-435.338382	35.961	
C	-0.01538438	 1.5239330031	 0.0527881544	-0.390378
C	-0.1944624386	 0.0175888418	-0.1071606034	-0.119651
N	 0.9256902562	-0.546947481	-0.8538805634	-0.278902
C	 0.9004788752	-1.9694535563	-1.0783088784	-0.207232
C	-0.3918161695	-2.5121190102	-1.5784235309	 0.25594
N	-1.4080107242	-2.9129181358	-1.9584705437	-0.326934
C	 1.9972678865	-2.3235402732	-2.1235508633	 0.417322
N	 2.3999922968	-3.6197582869	-2.1005135822	-0.515699
O	 2.4379477862	-1.4849923001	-2.8769904597	-0.34077
H	 0.9273059565	 1.7519142282	 0.5579305007	 0.129647
H	-0.0068180725	 2.0229326754	-0.9227217915	 0.121666
H	-0.8379130558	 1.9480282645	 0.6354366722	 0.120914
H	-0.2161558211	-0.4603189565	 0.8813855861	 0.103039
H	-1.1689905018	-0.1962071968	-0.5779713772	 0.107813
H	 1.0787807719	-0.0823365208	-1.7441185979	 0.242299
H	 1.1180934689	-2.497376303	-0.1391188647	 0.133561
H	 1.904030287	-4.3148231428	-1.5681692916	 0.27324
H	 3.0033813183	-3.9356828597	-2.8434421656	 0.274123
40.1389	84.1214	99.0344	118.6005	144.1488	234.1447	261.2624	322.6045	323.9493	348.6609	429.6091	441.8606	548.8847	608.6516	653.0671	704.2941	751.7861	820.1347	883.2843	917.6788	951.3621	1051.3094	1100.0718	1140.7519	1172.3828	1209.7848	1237.6839	1302.9894	1335.4005	1360.8109	1401.1306	1420.2905	1482.2344	1497.6751	1503.5687	1527.4388	1627.3119	1825.1299	2335.9368	2963.6654	3010.6844	3028.4956	3039.0912	3106.0537	3123.6938	3524.3488	3593.1955	3722.6814
CCNC(C#N)C(N)=O	CCN[C@@H](C#N)C(=O)N	
InChI=1S/C5H9N3O/c1-2-8-4(3-6)5(7)9/h4,8H,2H2,1H3,(H2,7,9)	InChI=1S/C5H9N3O/c1-2-8-4(3-6)5(7)9/h4,8H,2H2,1H3,(H2,7,9)/t4-/m0/s1
