20
gdb 87787	4.328	0.95054	0.90058	1.4407	80.42	-0.2407	0.0636	0.3043	1366.2896	0.169714	-403.091776	-403.083035	-403.082091	-403.125694	33.487	
C	 0.2298524486	 1.47925875	-0.4043653163	-0.392389
C	 0.1366619249	 0.0076122104	-0.0856394783	-0.071585
N	 1.4109294198	-0.693953404	 0.1958971604	-0.378887
C	 0.4164383716	-0.5406015568	 1.2583386806	 0.341249
C	 0.7329167203	 0.182187072	 2.5804703187	-0.374455
C	 0.1780589209	-1.0508023904	 3.3081785981	 0.449456
C	 0.6436129066	-1.6941811185	 4.5360153614	-0.260904
O	-0.607604595	-0.991255786	 4.4828056962	-0.268614
C	-0.2973608274	-1.6905953478	 1.9946559772	-0.40103
H	 0.989099026	 1.9609535785	 0.2174823181	 0.127839
H	 0.506262602	 1.6345437424	-1.4527203315	 0.120944
H	-0.7297295711	 1.978784712	-0.2306241085	 0.115623
H	-0.6013533318	-0.5414038093	-0.6711919181	 0.080263
H	 1.3821606996	-1.6403140627	-0.1775377805	 0.225623
H	 1.7871064808	 0.4157829373	 2.7468691153	 0.115932
H	 0.1296717039	 1.0784977819	 2.7551991083	 0.116002
H	 0.566274586	-2.7755133692	 4.646351348	 0.113797
H	 1.4199117036	-1.2200560056	 5.1356950383	 0.11645
H	-1.3870018007	-1.6816276911	 1.8915563771	 0.119166
H	 0.0713148512	-2.700440793	 1.7876272256	 0.105518
31.9995	149.1607	184.1908	201.2499	300.1566	313.386	347.5642	400.748	427.9147	451.8918	502.4186	660.2355	767.9505	828.1485	833.8667	856.7265	885.004	895.7579	935.4019	962.7082	1013.7744	1028.2906	1053.9094	1075.8786	1120.7556	1120.9218	1127.2168	1158.1812	1175.264	1203.3594	1216.474	1233.9136	1240.4518	1276.4861	1353.6355	1410.3295	1430.2797	1456.4058	1465.7642	1482.3829	1491.0082	1505.5014	1539.7729	3033.0602	3042.1317	3055.9014	3077.0576	3094.4964	3095.3054	3097.1604	3113.3954	3122.2944	3163.5211	3484.9753
CC1NC11CC2(CO2)C1	C[C@H]1N[C@]21C[C@]1(CO1)C2	
InChI=1S/C7H11NO/c1-5-7(8-5)2-6(3-7)4-9-6/h5,8H,2-4H2,1H3	InChI=1S/C7H11NO/c1-5-7(8-5)2-6(3-7)4-9-6/h5,8H,2-4H2,1H3/t5-,6-,7-/m1/s1
