13
gdb 6246	4.62193	1.20554	0.98752	2.6147	63.6	-0.2514	-0.0783	0.173	1097.1315	0.093225	-398.612534	-398.604232	-398.603288	-398.646425	29.156	
N	 0.368323923	 0.6664190501	-0.4101060647	-0.511694
C	-0.3904054279	 0.3409770502	 0.6672314846	 0.388867
O	-0.2503477516	 0.8162982878	 1.7752997974	-0.354243
C	-1.5437488377	-0.6429341786	 0.3898232939	-0.414831
C	-1.2817996141	-1.7872637765	-0.5763892642	 0.225331
O	-0.5708075341	-1.6943313848	-1.5600484153	-0.305073
C	-1.9717287068	-3.0226939475	-0.2698582339	 0.265189
C	-2.5581906889	-4.0381705489	 0.002138022	-0.381963
H	 1.178258426	 1.2420870444	-0.2429271075	 0.259304
H	 0.325279068	 0.0835151711	-1.2348471169	 0.278697
H	-1.8918026459	-1.0191490743	 1.3521649746	 0.154672
H	-2.3718872611	-0.0619435169	-0.0413186461	 0.171289
H	-3.0684692389	-4.942949266	 0.2298798364	 0.224455
34.3152	67.5814	141.9082	238.7445	261.7878	370.1472	415.7472	466.0939	513.5376	586.9513	609.3254	637.5314	649.0627	707.7302	719.5445	853.5779	886.5235	950.224	1097.5369	1146.7143	1177.9048	1321.9243	1354.9571	1434.3876	1613.1401	1746.6076	1811.9967	2212.6318	3028.7549	3136.2683	3491.6897	3542.1233	3693.9241
NC(=O)CC(=O)C#C	NC(=O)CC(=O)C#C	
InChI=1S/C5H5NO2/c1-2-4(7)3-5(6)8/h1H,3H2,(H2,6,8)	InChI=1S/C5H5NO2/c1-2-4(7)3-5(6)8/h1H,3H2,(H2,6,8)
