21
gdb 108043	3.60516	1.3593	1.23625	1.5446	81.63	-0.2329	0.0761	0.309	1114.2485	0.183295	-387.053115	-387.045226	-387.044282	-387.085369	31.707	
C	 0.1789101041	 1.5681199418	 0.0640562488	-0.382507
C	-0.0374157767	 0.051493921	-0.0173410996	-0.283155
C	 0.5701888611	-0.5472288438	-1.2603654911	 0.474717
C	-0.0234665036	-0.2602082317	-2.6677945906	-0.27291
C	 0.4404347716	-1.6652958197	-3.1370041713	-0.054655
C	 1.973422287	-1.7348863213	-3.3727403165	-0.237855
C	 2.1890279399	-1.7243362545	-1.8419068318	 0.112176
O	 2.0198971994	-0.4009877786	-1.2894126521	-0.346726
C	 0.6871240951	-2.0590394156	-1.6280719805	-0.169617
H	 1.2463640116	 1.8025546694	 0.0302780523	 0.139025
H	-0.3058934342	 2.0847833476	-0.7710211634	 0.116161
H	-0.2326324991	 1.9740950896	 0.9927085659	 0.11006
H	 0.410368042	-0.4353199967	 0.8574272943	 0.10085
H	-1.1092807595	-0.1830443834	-0.000818141	 0.093137
H	-1.1165954318	-0.2048017691	-2.6203389304	 0.096135
H	 0.3614879048	 0.6140566253	-3.1999780888	 0.098908
H	-0.2080794312	-2.2142085217	-3.8190927301	 0.066978
H	 2.2578596968	-2.7065846508	-3.790882291	 0.098309
H	 2.4507239627	-0.9363709231	-3.9479283567	 0.099047
H	 3.048417546	-2.241335454	-1.4097569318	 0.073184
H	 0.264874014	-2.8990277308	-1.0821180646	 0.068737
85.1753	149.8321	201.5496	283.0354	307.4232	374.0759	393.3313	454.5264	608.5851	680.0998	738.0911	780.0287	797.15	834.2312	858.1673	885.4397	892.429	934.5667	958.72	978.8538	986.195	996.251	1023.0923	1030.4039	1096.5919	1113.185	1130.4059	1142.2833	1164.5286	1177.9047	1213.8606	1223.0704	1255.743	1271.8758	1287.9942	1302.9967	1326.4037	1338.5219	1383.3079	1404.6206	1462.1978	1473.2075	1476.6846	1497.7859	1508.8596	3024.1007	3039.2516	3040.5463	3041.4402	3061.5776	3083.6097	3099.4935	3100.691	3105.9539	3109.8483	3121.6313	3145.8644
CCC12CC3CC(O1)C23	CC[C@@]12C[C@H]3C[C@@H](O1)[C@@H]23	
InChI=1S/C8H12O/c1-2-8-4-5-3-6(9-8)7(5)8/h5-7H,2-4H2,1H3	InChI=1S/C8H12O/c1-2-8-4-5-3-6(9-8)7(5)8/h5-7H,2-4H2,1H3/t5-,6-,7+,8+/m1/s1
