17
gdb 126730	4.50245	1.06125	0.93057	5.6242	83.64	-0.217	-0.0525	0.1645	1273.4054	0.136877	-414.166394	-414.158088	-414.157144	-414.200245	30.455	
C	-0.0165309227	 1.5631757952	-0.0458211411	-0.378025
C	-0.0278199782	 0.0367364463	 0.0449024914	-0.146739
N	-1.3730994865	-0.5292204335	-0.0174582201	-0.021022
C	-2.0448014745	-0.7291483486	-1.1992606058	 0.056705
C	-3.307966523	-1.1879427206	-1.1878754609	-0.202269
C	-3.9361034753	-1.4527885236	 0.0904866181	 0.377047
N	-5.1329012942	-1.8893773163	 0.2042778927	-0.524214
N	-3.1351339966	-1.2004895154	 1.2551600877	-0.267062
N	-1.9535899783	-0.7688215371	 1.1879781327	-0.055478
H	 1.0112266559	 1.9334594541	 0.0137192431	 0.130248
H	-0.4484048377	 1.9109778229	-0.9894471735	 0.127711
H	-0.5898460197	 1.9991835521	 0.7767335057	 0.146605
H	 0.5614883915	-0.4083658831	-0.7636218843	 0.123267
H	 0.3968027933	-0.296878352	 0.9936157475	 0.146715
H	-1.4872537574	-0.5033619216	-2.1007992027	 0.139307
H	-3.8591972727	-1.3664621868	-2.1011944502	 0.128029
H	-5.348152454	-1.9989795119	 1.1981373298	 0.219173
50.1432	65.3235	129.6061	222.1375	344.2938	366.0132	422.9551	454.1954	474.0439	510.5911	669.6586	742.8203	744.5932	788.0729	807.598	837.5902	904.42	960.8488	973.607	988.052	1031.5382	1099.1584	1119.4675	1169.5464	1238.9893	1270.4574	1339.2312	1369.9052	1390.3909	1412.472	1448.3324	1478.3084	1491.3238	1502.2035	1532.0758	1665.8828	1719.2252	3043.3289	3055.3428	3108.4135	3123.2678	3133.642	3198.1124	3232.0641	3452.6345
CCN1C=CC(=N)N=N1	CCn1ccc([NH])nn1	
InChI=1S/C5H8N4/c1-2-9-4-3-5(6)7-8-9/h3-4,6H,2H2,1H3	InChI=1S/C5H13N4/c1-2-9-4-3-5(6)7-8-9/h5-8H,2-4H2,1H3
