19
gdb 16611	2.99411	2.09582	1.37631	1.3435	78.3	-0.2145	0.0276	0.242	952.0378	0.165993	-327.923589	-327.915678	-327.914734	-327.955418	30.351	
C	 0.0727269889	 1.5034579501	 0.1316204146	-0.493725
C	-0.0040348953	 0.0143576335	 0.0054585971	 0.20821
C	-0.0583235747	-0.7268555587	-1.113668394	 0.269563
C	-0.0847828507	-0.2790364082	-2.5414322021	-0.509031
C	-0.0296799339	-2.1833157982	-0.76694695	-0.137103
N	 1.2412370818	-2.5858653502	-0.0909346377	-0.337361
C	 0.0374836137	-2.2740471524	 0.7122790507	-0.040967
C	 0.0155465593	-0.8535358855	 1.2566473453	-0.295472
H	 1.0174562512	 1.8112630358	 0.5985497699	 0.127722
H	-0.0007593615	 2.0105688126	-0.8334395753	 0.121186
H	-0.7300934913	 1.8860717621	 0.7756836631	 0.119958
H	-0.1490928162	 0.8072853781	-2.6389685956	 0.121507
H	 0.816115499	-0.6115905984	-3.0732117586	 0.132087
H	-0.9403102417	-0.7129464291	-3.0751780139	 0.11963
H	-0.540435164	-2.9150425914	-1.3859387172	 0.078977
H	 1.3255656036	-3.6005777607	-0.1438301829	 0.222151
H	-0.4407925861	-3.0764507731	 1.2635411883	 0.082903
H	 0.8911415182	-0.642915105	 1.88375162	 0.11257
H	-0.8720155602	-0.6754441815	 1.8803317984	 0.097195
148.0519	159.261	171.4137	199.5841	286.9281	344.3888	377.8202	429.6553	570.3729	593.4758	654.7504	763.5599	807.9263	851.4426	867.3257	919.7217	950.4076	969.9742	985.6739	1035.3508	1067.896	1087.08	1116.1418	1133.8507	1175.726	1187.1407	1197.5813	1238.1592	1266.5309	1339.4823	1372.814	1405.7651	1417.9742	1422.1555	1467.1953	1478.1686	1481.7414	1487.2922	1493.4566	1726.894	3006.4865	3014.1019	3016.3603	3046.8874	3056.1636	3058.3471	3112.1762	3118.1531	3151.4348	3167.4775	3464.7112
CC1=C(C)C2NC2C1	CC1=C(C)[C@H]2N[C@H]2C1	
InChI=1S/C7H11N/c1-4-3-6-7(8-6)5(4)2/h6-8H,3H2,1-2H3	InChI=1S/C7H11N/c1-4-3-6-7(8-6)5(4)2/h6-8H,3H2,1-2H3/t6-,7+/m0/s1
