27
gdb 101321	2.4848	0.88335	0.75295	0.0758	96.93	-0.2618	0.0817	0.3435	1715.4764	0.250545	-353.558996	-353.547602	-353.546658	-353.596031	42.192	
C	 2.9120242	 1.6965191148	-0.2476361224	-0.392426
C	 1.9899324513	 0.472998101	-0.2637778283	-0.154488
C	 2.5429210873	-0.7463386286	-1.0312791082	 0.015738
C	 3.8256879072	-1.2962883834	-0.3880015201	-0.405032
C	 1.480106645	-1.8312209475	-1.1228521737	 0.021603
C	 0.2821249778	-1.6818588676	-2.0298561844	-0.327276
C	 1.2938000741	-2.7685771503	-2.3030037821	-0.003425
C	 2.1331171877	-2.7447896136	-3.5666259178	-0.195238
C	 3.3021888568	-3.7368095203	-3.5468952131	-0.384216
H	 3.849217021	 1.5002565067	 0.2820293311	 0.116657
H	 3.166936327	 2.0127485535	-1.2658954132	 0.110569
H	 2.4278618528	 2.543311602	 0.2492785315	 0.110202
H	 1.7640213754	 0.1700540173	 0.768257877	 0.088175
H	 1.0297946282	 0.754736216	-0.7119170048	 0.095763
H	 2.7863835322	-0.4076077301	-2.0478579611	 0.065417
H	 4.1908130454	-2.1773931866	-0.9229543536	 0.121808
H	 4.6301455293	-0.5552482627	-0.3803683791	 0.111578
H	 3.6387116691	-1.5949448125	 0.6509076643	 0.109489
H	 1.2667307932	-2.2860326895	-0.1561898699	 0.072797
H	-0.7027929466	-1.9496628385	-1.6623658251	 0.103858
H	 0.2818308456	-0.8336730296	-2.7096950807	 0.103654
H	 0.9751886439	-3.7727792152	-2.028346482	 0.074509
H	 1.4822156276	-2.9800286041	-4.4195324734	 0.096289
H	 2.5084696837	-1.7318655368	-3.7520275711	 0.095864
H	 3.8558603159	-3.7150206342	-4.4910300756	 0.109274
H	 4.0072576091	-3.513736193	-2.7402555659	 0.125604
H	 2.9438504202	-4.761262827	-3.3960282179	 0.113251
36.774	81.5817	99.95	137.5273	172.8269	204.5645	221.0057	244.8834	265.871	297.3838	355.8275	397.7954	423.6109	485.8837	528.9314	745.1225	767.9619	791.8273	811.1146	848.9596	858.2413	944.8889	953.1846	968.898	977.0906	1004.5797	1039.92	1050.6143	1057.937	1069.447	1115.149	1144.4923	1149.6944	1179.0497	1197.6163	1204.9877	1248.9388	1282.8236	1293.413	1302.5053	1339.6054	1348.6191	1373.9698	1402.8261	1409.097	1411.4157	1414.5962	1434.1975	1481.6162	1486.4056	1492.9675	1494.5437	1496.7283	1500.5521	1504.8352	1507.4356	1512.276	3004.3072	3014.3888	3017.3985	3029.9451	3031.3791	3032.9834	3053.9976	3056.1658	3094.7499	3095.6921	3097.8667	3104.9091	3106.043	3108.1959	3116.1236	3116.953	3120.492	3200.3914
CCC(C)C1CC1CC	CC[C@@H](C)[C@H]1C[C@H]1CC	
InChI=1S/C9H18/c1-4-7(3)9-6-8(9)5-2/h7-9H,4-6H2,1-3H3	InChI=1S/C9H18/c1-4-7(3)9-6-8(9)5-2/h7-9H,4-6H2,1-3H3/t7-,8-,9-/m1/s1
