20
gdb 111252	3.34481	1.27048	1.1432	2.1359	74.01	-0.2245	0.0721	0.2966	1135.497	0.173708	-440.234419	-440.226669	-440.225725	-440.26668	30.747	
O	-0.065569707	 1.3398222554	 0.3109176298	-0.4209
C	 0.0179287158	 0.0145748069	-0.1703786485	-0.092345
C	-1.3551252205	-0.6464897752	-0.1025018818	 0.02137
C	-1.4659561731	-2.1806196446	 0.0463256108	 0.09885
C	-1.3351052106	-1.9170004264	 1.562202359	-0.226531
N	-1.9061328326	-0.5360518231	 1.3114786923	-0.14329
C	-3.3729812119	-0.6739762033	 1.2078740236	-0.189694
C	-3.787143137	-2.0324890659	 0.5712511711	-0.08478
O	-2.7880094697	-2.575160406	-0.2967256877	-0.273367
H	-0.6145487719	 1.2743545367	 1.1067243581	 0.285181
H	 0.359615899	 0.0586660105	-1.2101606315	 0.108189
H	 0.7652138004	-0.5697631564	 0.3915827964	 0.080487
H	-2.0183385368	-0.208642663	-0.8544891808	 0.082172
H	-0.7839122513	-2.8556305149	-0.4772623162	 0.080344
H	-1.8987031961	-2.5445747612	 2.2555531777	 0.113021
H	-0.3025548437	-1.844961908	 1.9069325505	 0.118958
H	-3.8170097604	-0.5948035987	 2.2067741452	 0.107682
H	-3.7396631724	 0.1717482861	 0.6180189659	 0.117868
H	-4.0036922738	-2.7603035392	 1.3651970171	 0.102219
H	-4.6981111364	-1.9267331997	-0.0248695408	 0.114564
95.3895	159.4466	184.9524	294.6953	322.8615	383.9443	464.6664	495.5037	533.8111	550.0332	660.0781	797.5138	823.03	832.6052	852.5812	908.6219	926.4406	947.8361	975.95	1026.4535	1047.4158	1061.8262	1084.5562	1125.3044	1147.6809	1153.9341	1184.71	1227.1451	1242.2935	1248.1087	1263.228	1284.062	1287.6132	1338.7836	1351.1634	1367.52	1390.5146	1407.2893	1450.8904	1496.2435	1498.1887	1517.3289	1532.6371	2964.5673	3001.8019	3036.9817	3059.5811	3071.7151	3074.5787	3075.1271	3083.2778	3092.0628	3131.4952	3712.9714
OCC1C2CN1CCO2	OC[C@H]1[C@H]2CN1CCO2	
InChI=1S/C6H11NO2/c8-4-5-6-3-7(5)1-2-9-6/h5-6,8H,1-4H2	InChI=1S/C6H11NO2/c8-4-5-6-3-7(5)1-2-9-6/h5-6,8H,1-4H2/t5-,6+/m0/s1
