21
gdb 122238	2.74639	0.82778	0.70404	4.8779	83.91	-0.2715	0.0239	0.2953	1682.0245	0.181884	-383.266052	-383.255976	-383.255032	-383.301965	36.182	
C	-0.2856631761	 1.5201338941	-0.0169542027	-0.383312
C	 0.0641374916	 0.0311293192	 0.0469194647	-0.167311
C	 0.6276445277	-0.5061557997	-1.2728481521	-0.167951
C	 0.9811899984	-1.997856704	-1.2083358837	-0.289024
C	 1.5399790381	-2.5476403384	-2.51362669	 0.153776
C	 1.2620858299	-3.9615904574	-2.9099727948	-0.270147
N	 0.6282863601	-2.8588368617	-3.6374154259	-0.323683
C	 2.8024846593	-1.9605272201	-2.9242492473	 0.291356
N	 3.8209138191	-1.4920027118	-3.2066959424	-0.3455
H	 0.5964822333	 2.1229572255	-0.2581098705	 0.121792
H	-1.0403776798	 1.7171587557	-0.7863091392	 0.116129
H	-0.6827260718	 1.8769118199	 0.9382010579	 0.114878
H	 0.7950454518	-0.1407644072	 0.8479862013	 0.1008
H	-0.8293235094	-0.5449532279	 0.3232304782	 0.093597
H	-0.0997096832	-0.3376306741	-2.0784254874	 0.099106
H	 1.523597581	 0.0639268363	-1.5486366905	 0.125536
H	 1.7117950275	-2.1710062958	-0.4083506118	 0.121711
H	 0.0908059809	-2.5856772595	-0.9498806583	 0.098011
H	 2.0019832038	-4.51684613	-3.4775287294	 0.143887
H	 0.6712495458	-4.554090113	-2.2161862464	 0.125345
H	-0.3311338379	-2.7287563902	-3.3231986797	 0.241001
54.4616	72.3659	106.802	133.5288	181.654	232.1557	249.9005	286.082	317.1683	386.3908	449.0679	574.3672	597.1922	702.2324	735.8742	788.7273	847.6726	892.2046	910.3287	932.4136	953.9565	984.8134	1027.1358	1067.3101	1069.1989	1122.0702	1131.0546	1148.567	1236.2599	1243.6868	1285.2496	1303.2359	1312.7218	1332.43	1366.6711	1381.4468	1400.6524	1415.4563	1473.8391	1485.5425	1498.2926	1500.562	1507.8861	1512.1665	2356.8396	3010.8765	3015.2319	3023.0403	3032.4293	3038.8276	3053.3443	3074.3699	3099.7564	3105.8907	3114.3828	3207.5661	3494.5084
CCCCC1(CN1)C#N	CCCC[C@]1(CN1)C#N	
InChI=1S/C7H12N2/c1-2-3-4-7(5-8)6-9-7/h9H,2-4,6H2,1H3	InChI=1S/C7H12N2/c1-2-3-4-7(5-8)6-9-7/h9H,2-4,6H2,1H3/t7-/m1/s1
