21
gdb 108137	3.46993	1.25289	1.18028	1.7601	81.31	-0.235	0.0848	0.3198	1159.753	0.184044	-387.069973	-387.062009	-387.061064	-387.102459	31.636	
C	 0.0735083844	 1.5022535598	-0.2436454652	-0.373956
C	-0.042287541	 0.0209126605	 0.1414711749	-0.301885
C	-1.459310237	-0.4837865689	 0.1163444746	 0.361049
C	-2.5527332846	-0.1158813094	 1.1305321025	-0.309266
C	-3.2746753267	-1.4502360784	 0.7561655424	 0.088211
O	-4.2712904304	-1.2518335378	-0.2358556272	-0.264496
C	-3.6007763889	-0.7293996325	-1.3889157038	-0.106328
C	-2.1193414072	-1.0056790172	-1.1559322693	-0.118816
C	-1.9872162435	-1.9132106069	 0.0333925838	-0.156422
H	 1.1128274237	 1.8418557612	-0.1999441818	 0.11152
H	-0.2962368747	 1.6743148756	-1.2598615767	 0.11692
H	-0.5121817969	 2.1330074622	 0.4333806646	 0.120333
H	 0.5715643525	-0.5852702742	-0.5371286797	 0.095024
H	 0.3751812187	-0.1281776311	 1.1465960647	 0.096228
H	-2.1611265628	-0.1414466961	 2.1526741532	 0.095974
H	-3.1303689032	 0.8038671192	 0.9877778373	 0.093945
H	-3.7013690822	-2.0467450865	 1.5610508296	 0.081579
H	-3.9768456373	-1.2492599156	-2.2781532173	 0.103128
H	-3.8197157467	 0.3415162519	-1.5023567898	 0.095654
H	-1.4688139073	-1.1567085008	-2.010094604	 0.086671
H	-1.4876475688	-2.8726736551	 0.0568337572	 0.084931
84.1482	133.8163	209.6538	233.3746	316.2838	340.7131	422.2254	452.993	604.15	700.148	708.5513	753.1739	788.8378	845.4568	870.1696	873.9423	901.3131	941.5138	966.0769	988.5942	991.413	1008.5749	1037.6607	1053.0119	1065.8532	1094.0471	1129.9846	1155.1985	1195.3308	1202.6743	1219.1299	1233.734	1255.1724	1292.7714	1311.9315	1340.4828	1351.1552	1380.0371	1409.1641	1433.7782	1481.0169	1494.3984	1499.3418	1507.9469	1525.7315	3001.9568	3010.8971	3033.4177	3035.4514	3044.7352	3047.3376	3086.5551	3103.1048	3106.3128	3131.0724	3179.4041	3200.903
CCC12CC3OCC1C23	CC[C@@]12C[C@H]3OC[C@@H]1[C@@H]23	
InChI=1S/C8H12O/c1-2-8-3-6-7(8)5(8)4-9-6/h5-7H,2-4H2,1H3	InChI=1S/C8H12O/c1-2-8-3-6-7(8)5(8)4-9-6/h5-7H,2-4H2,1H3/t5-,6-,7-,8-/m1/s1
