19
gdb 39226	2.54179	2.19595	1.59327	1.4642	78.58	-0.2184	0.006	0.2244	901.3411	0.16272	-385.85144	-385.844931	-385.843987	-385.881714	28.43	
C	-0.0598927337	 1.4863702001	 0.0525806881	-0.423341
C	 1.3106611953	 0.8366780967	 0.0275926823	-0.023577
C	 2.2315310409	 0.3635910993	 1.132739556	-0.103413
O	 2.325446979	-1.0786451209	 1.1051617261	-0.297052
C	 1.0713301296	-1.7872249228	 0.9578762097	 0.092062
C	-0.0862821919	-0.8360472588	 1.2794831028	-0.290697
C	 0.029763427	-0.0021488844	-0.000255572	 0.313639
C	 0.0982971241	-1.0665558364	-1.0618375008	-0.176717
C	 0.7440480749	-2.1059151519	-0.5195710845	-0.085012
H	-0.4480243743	 1.9142640414	 0.9730948693	 0.11479
H	-0.3236774047	 2.0519633172	-0.8357455311	 0.118381
H	 1.796849461	 0.9060599849	-0.9413839474	 0.093236
H	 3.2586143652	 0.7097249112	 0.9893419258	 0.106705
H	 1.9074530748	 0.7129817815	 2.1224500723	 0.093619
H	 1.1508527719	-2.6716432168	 1.5943465917	 0.069991
H	-1.0395380716	-1.3694333142	 1.3135231136	 0.101277
H	 0.0383596675	-0.279557516	 2.2103711161	 0.097976
H	-0.2208863045	-0.9508416412	-2.0905357396	 0.101393
H	 1.0477632197	-3.0154213788	-1.0215148384	 0.096739
260.1301	269.5798	349.8067	383.535	428.3822	491.6333	563.1801	575.8259	598.2411	730.0347	775.0961	798.8034	826.7833	840.7885	863.6448	895.6671	905.4628	935.8127	950.8672	961.6851	1012.0112	1039.2238	1069.8545	1084.4468	1094.7072	1125.6719	1159.6202	1175.493	1229.3285	1255.9382	1277.6946	1299.9318	1303.8951	1348.0989	1363.7374	1381.8399	1432.49	1486.2717	1490.5931	1525.926	1627.0335	3005.1612	3067.5099	3082.9167	3083.56	3114.8036	3119.9488	3142.6767	3196.6345	3199.2178	3224.4398
C1C2COC3CC12C=C3	C1[C@H]2CO[C@H]3C[C@@]12C=C3	
InChI=1S/C8H10O/c1-2-8-3-6(8)5-9-7(1)4-8/h1-2,6-7H,3-5H2	InChI=1S/C8H10O/c1-2-8-3-6(8)5-9-7(1)4-8/h1-2,6-7H,3-5H2/t6-,7+,8+/m0/s1
