16
gdb 51965	5.18084	0.77084	0.72691	4.9466	68.21	-0.2746	-0.0493	0.2253	1511.9861	0.122753	-475.023753	-475.014804	-475.013859	-475.058896	30.688	
O	 0.496849298	 0.1496345241	 0.3683664068	-0.267206
C	 0.5306986591	 1.3400815395	 0.3668383562	 0.191621
O	 0.7989491963	 2.0519450871	-0.7555994055	-0.164429
C	 0.8867588714	 3.4549724955	-0.6196591295	-0.20678
C	 2.1401135421	 3.9005549147	 0.1325347892	 0.364944
O	 2.826528337	 3.1101344645	 0.7422264834	-0.314406
C	 2.4486674858	 5.3598149846	 0.1005395878	-0.110133
C	 2.7741457329	 5.9962426827	 1.4224326623	-0.213733
N	 3.8208091063	 5.7656247039	 0.4427569434	-0.295118
H	 0.3215585161	 1.9796069006	 1.2439367478	 0.081278
H	 0.8921248095	 3.8656886554	-1.63309449	 0.156988
H	 0.0076048846	 3.8747979084	-0.1063854676	 0.142058
H	 1.9615051128	 5.9548895621	-0.666481729	 0.106036
H	 2.4948363832	 7.0342196679	 1.5773715633	 0.135166
H	 2.726647714	 5.3552901891	 2.2983826588	 0.138369
H	 4.3276925109	 4.9165217499	 0.6965199027	 0.255346
44.6684	73.7035	85.8315	175.1454	211.6185	262.5372	297.4531	327.2528	377.3831	570.8063	638.8361	716.6486	820.5791	866.3304	891.8208	949.4785	983.2388	1014.3255	1032.501	1075.4716	1081.383	1123.4393	1134.6672	1175.9046	1186.4184	1285.3027	1293.4926	1317.6355	1373.7459	1410.1688	1429.8901	1468.1502	1496.0817	1796.7118	1879.789	2969.7495	3001.221	3099.4543	3114.6079	3154.7475	3209.596	3464.5254
O=COCC(=O)C1CN1	O=COCC(=O)[C@H]1CN1	
InChI=1S/C5H7NO3/c7-3-9-2-5(8)4-1-6-4/h3-4,6H,1-2H2	InChI=1S/C5H7NO3/c7-3-9-2-5(8)4-1-6-4/h3-4,6H,1-2H2/t4-/m1/s1
