17
gdb 15415	4.54852	0.90799	0.80756	2.4395	66.4	-0.2516	-0.0306	0.221	1368.1623	0.140903	-400.971521	-400.962756	-400.961812	-401.005789	30.609	
O	 0.226303602	 1.3467415678	-0.1583869457	-0.417006
C	 0.0560843036	-0.0488547267	 0.0153851891	-0.056886
C	-1.3817181584	-0.5082992908	-0.2543278651	-0.216451
C	-1.5141930306	-2.0105405765	-0.1389060179	-0.00916
N	-1.719128625	-2.57443443	 1.1899799486	-0.331962
C	-2.7919222358	-2.7372521009	 0.1853401271	-0.134358
C	-4.066216758	-2.021391128	 0.4732593986	 0.17581
O	-5.1269262328	-2.3308224865	-0.0086395298	-0.256629
H	-0.2881230783	 1.7942208738	 0.5210069771	 0.283658
H	 0.7389306084	-0.5207781059	-0.7007019017	 0.109584
H	 0.3631073123	-0.3745572181	 1.0209892129	 0.102315
H	-2.0535731615	-0.0202729372	 0.4601380279	 0.098273
H	-1.6773071778	-0.1826978856	-1.2583495769	 0.11779
H	-0.863181105	-2.5651110134	-0.8160387244	 0.098954
H	-1.2198425485	-3.4510843824	 1.3097251621	 0.244813
H	-2.9337505777	-3.7031386449	-0.2935997135	 0.106746
H	-3.9672971468	-1.1741773148	 1.1857182714	 0.08451
68.5913	79.4006	105.0835	146.818	251.7183	291.2267	310.1942	379.3719	430.5517	488.343	529.8755	782.6227	817.3969	862.1061	917.461	981.0635	1013.0887	1017.4229	1050.8133	1068.3723	1085.5332	1126.0553	1163.8236	1218.0104	1235.5329	1259.3352	1295.6802	1322.866	1363.3746	1397.0668	1420.7283	1424.3845	1468.7928	1479.418	1512.7979	1822.6724	2901.2729	2991.2138	3040.6184	3058.2435	3085.9475	3103.6075	3147.055	3516.6104	3816.8895
OCCC1NC1C=O	OCC[C@H]1N[C@H]1C=O	
InChI=1S/C5H9NO2/c7-2-1-4-5(3-8)6-4/h3-7H,1-2H2	InChI=1S/C5H9NO2/c7-2-1-4-5(3-8)6-4/h3-7H,1-2H2/t4-,5+/m1/s1
