18
gdb 113325	2.56419	1.06015	0.85046	4.9987	73.96	-0.288	0.0014	0.2894	1397.6885	0.145331	-439.072662	-439.062757	-439.061813	-439.108206	34.856	
C	-0.3819929854	 1.4299473372	 0.3214089697	-0.381145
C	 0.2700672901	 0.1285580975	-0.1651038664	-0.231555
C	 1.0138239284	-0.5596326768	 0.9536903335	 0.045171
O	 0.2552768374	-1.2888982587	 1.9245907644	-0.278863
C	 1.1838910829	-2.0262677495	 1.1088905399	 0.159905
C	 0.553984666	-3.0720105279	 0.2045181812	-0.131799
O	 0.0814466164	-4.1688663464	 0.9546064925	-0.403442
C	 2.3652769791	-2.4882577263	 1.8243850861	 0.2763
N	 3.3228016369	-2.8483342201	 2.3615339135	-0.328158
H	 0.3666582511	 2.1262404268	 0.7133346329	 0.1259
H	-0.9085285259	 1.9285924501	-0.4966991325	 0.124364
H	-1.1032859074	 1.2273153687	 1.1185022876	 0.138258
H	-0.4930849989	-0.5345997341	-0.5801916414	 0.114354
H	 0.984848246	 0.3434357806	-0.9692148147	 0.118242
H	 1.8037665188	 0.0457890862	 1.4032721071	 0.114164
H	-0.2429136698	-2.6046838339	-0.3862512388	 0.104889
H	 1.3066925208	-3.466198943	-0.4850583028	 0.134204
H	-0.5689052066	-3.8324046102	 1.5820554482	 0.299209
57.8485	72.5376	130.983	138.5759	166.3718	228.1808	244.5728	310.5441	368.9892	413.0533	433.4031	497.5851	584.6447	645.5224	706.7266	763.0939	838.109	913.0948	945.7817	975.0792	1033.5889	1056.922	1090.0007	1127.0593	1159.1614	1204.8159	1261.4274	1293.4481	1329.1098	1347.8644	1385.5831	1411.8521	1422.971	1467.4097	1474.5057	1491.0186	1498.9721	1507.3992	2359.885	3031.3391	3040.257	3042.0809	3087.0526	3094.3266	3100.3984	3118.1561	3121.9044	3799.6681
CCC1OC1(CO)C#N	CC[C@H]1O[C@]1(CO)C#N	
InChI=1S/C6H9NO2/c1-2-5-6(3-7,4-8)9-5/h5,8H,2,4H2,1H3	InChI=1S/C6H9NO2/c1-2-5-6(3-7,4-8)9-5/h5,8H,2,4H2,1H3/t5-,6+/m1/s1
