17
gdb 60722	3.29459	1.08258	0.86937	4.4134	73.17	-0.2528	-0.081	0.1718	1312.8077	0.133633	-455.183509	-455.173611	-455.172667	-455.219244	34.116	
C	-0.4391516256	 1.4535245412	 0.1572604019	-0.340725
N	-0.0602229507	 0.0421567609	 0.0329562552	-0.112651
C	 0.4092924223	-0.6013684984	 1.1756939429	 0.169983
O	 0.4917791343	-0.0656089399	 2.2549862225	-0.318542
C	-0.2033587619	-0.6804012923	-1.1513353549	 0.264232
N	-0.3165718872	-1.9530195798	-1.1206954258	-0.481755
C	-0.1057131805	 0.1106230732	-2.4604223088	 0.322113
C	-0.7334011312	-0.5155450011	-3.6915718721	-0.500777
O	 0.48892892	 1.1606660198	-2.5055861484	-0.28229
H	 0.3711748266	 2.1147435089	-0.1517906032	 0.157441
H	-1.3187683124	 1.6621939763	-0.4533189601	 0.12852
H	-0.6722231549	 1.6248605973	 1.2079607439	 0.163155
H	 0.7044151876	-1.6390873941	 0.9720770574	 0.131413
H	-0.3436760418	-2.3423326291	-2.060270185	 0.231611
H	-1.7310784881	-0.9104053338	-3.4802493886	 0.152036
H	-0.7824305837	 0.2402254371	-4.475888965	 0.157476
H	-0.1177329829	-1.345542556	-4.0575205719	 0.15876
42.2044	67.128	122.6979	144.9173	171.1157	217.2793	281.5454	325.9355	352.8185	374.6874	397.7131	491.9733	590.5165	638.3184	708.2988	792.9691	844.3873	898.4102	993.8285	1037.9059	1042.7813	1075.1062	1151.6621	1186.8378	1240.9108	1293.79	1378.863	1409.9236	1431.6325	1458.4924	1466.7099	1475.1991	1489.5395	1514.7061	1670.6316	1802.2271	1805.6952	3041.6971	3060.1576	3070.4456	3108.4098	3145.6036	3158.3648	3164.2465	3519.6464
CN(C=O)C(=N)C(C)=O	CN(C=O)C(=N)C(=O)C	
InChI=1S/C5H8N2O2/c1-4(9)5(6)7(2)3-8/h3,6H,1-2H3	InChI=1S/C5H8N2O2/c1-4(9)5(6)7(2)3-8/h3,6H,1-2H3
