18
gdb 53392	2.93708	1.00276	0.81736	0.9639	81.79	-0.2356	0.0345	0.2701	1442.7636	0.146109	-401.871616	-401.86228	-401.861336	-401.908497	32.952	
C	 0.1593964493	 1.5116975269	-0.3513533804	-0.500293
C	 0.066517893	 0.0738572905	-0.1452604024	 0.096627
C	-0.0045845287	-1.1151498794	 0.0351616044	 0.104182
C	-0.1027710025	-2.5507742281	 0.2257075885	-0.282679
N	-0.1242365006	-3.0432892256	 1.6406053235	-0.311721
C	-1.1931726954	-4.0314459279	 1.3324084812	-0.262164
C	-1.4640642744	-3.2576219097	 0.0442284014	 0.434084
C	-2.7018800072	-2.7481209061	-0.530385223	-0.252199
O	-1.9351948527	-3.794881562	-1.1631371377	-0.264965
H	 1.0881474722	 1.9124112441	 0.0697034715	 0.150793
H	 0.1468740309	 1.7603531387	-1.4183284288	 0.149727
H	-0.6751304076	 2.0393386866	 0.1233114572	 0.149249
H	 0.6455262799	-3.0632977205	-0.3984463217	 0.098593
H	 0.7539787313	-3.4496753696	 1.9432766512	 0.223778
H	-0.841844864	-5.0508117762	 1.1203927719	 0.106165
H	-1.9921397959	-4.0754324538	 2.079329633	 0.114101
H	-3.6598957314	-3.0604241857	-0.1179233362	 0.118153
H	-2.6943282363	-1.7909546721	-1.0478219335	 0.128569
7.1726	74.9255	85.9182	150.9853	236.0223	278.1412	327.5463	358.2662	383.3581	478.976	516.3947	570.1184	693.6887	822.983	862.4298	889.4942	904.173	952.4054	986.5305	1011.0049	1051.5187	1053.9954	1098.0394	1113.8978	1130.529	1158.423	1174.1197	1199.826	1216.4306	1307.638	1356.7033	1380.1484	1414.0018	1447.2103	1476.6768	1478.7121	1510.9674	1541.7466	2367.1074	2979.4182	3007.1405	3026.7314	3070.2129	3087.742	3088.2666	3089.3614	3182.3401	3535.0489
CC#CC1NCC11CO1	CC#C[C@H]1NC[C@]21CO2	
InChI=1S/C7H9NO/c1-2-3-6-7(4-8-6)5-9-7/h6,8H,4-5H2,1H3	InChI=1S/C7H9NO/c1-2-3-6-7(4-8-6)5-9-7/h6,8H,4-5H2,1H3/t6-,7-/m1/s1
