18
gdb 74987	3.03218	1.57566	1.14157	3.8759	79.15	-0.2392	-0.0265	0.2127	1086.6797	0.149268	-401.983204	-401.975325	-401.974381	-402.015694	29.797	
C	-0.005191862	 1.5516054642	 0.1754990905	-0.487934
C	-0.0821797346	 0.0684431653	 0.0428012438	 0.218533
C	-1.144971394	-0.7449702529	-0.0430873042	-0.219852
C	-0.6956420978	-2.1697122191	-0.1252540514	-0.015993
C	-0.5453231775	-2.9446156347	-1.4835149618	-0.252157
C	 0.9769447954	-3.0047385531	-1.1910385899	-0.179331
N	 0.7768203882	-2.0943096938	-0.0256684627	-0.108853
C	 1.1631857287	-0.7535428811	-0.125711095	 0.305386
O	 2.2766998116	-0.3501090861	-0.3847546474	-0.36735
H	 0.6642230325	 1.960715479	-0.5881220399	 0.150711
H	-0.9870125489	 2.0223589983	 0.0852294473	 0.121025
H	 0.4257329564	 1.8313378498	 1.1438577971	 0.142853
H	-2.1868590146	-0.4486886808	 0.0023321922	 0.110732
H	-1.1476838983	-2.7885120121	 0.6598255153	 0.097057
H	-1.0719393151	-3.8979037354	-1.5443482839	 0.113096
H	-0.7979229262	-2.3320459286	-2.3505013446	 0.119831
H	 1.3475485915	-3.9864202425	-0.8854448372	 0.117964
H	 1.6489814748	-2.5836415764	-1.9423811481	 0.134283
113.5409	127.0527	150.8231	230.2645	254.2463	370.9915	387.955	547.3239	561.494	681.5364	711.5747	753.028	785.7045	823.6117	871.8064	895.2106	943.4803	971.9485	1000.3414	1036.6353	1064.5296	1074.906	1107.3769	1153.1062	1197.4442	1208.3251	1243.815	1259.9663	1264.2164	1308.8147	1338.5324	1339.8147	1411.8035	1471.5244	1483.1035	1485.3507	1516.285	1689.8788	1802.1519	3028.4387	3036.3382	3062.9501	3081.6271	3091.6989	3113.9783	3125.5079	3143.379	3197.666
CC1=CC2CCN2C1=O	CC1=C[C@H]2CCN2C1=O	
InChI=1S/C7H9NO/c1-5-4-6-2-3-8(6)7(5)9/h4,6H,2-3H2,1H3	InChI=1S/C7H9NO/c1-5-4-6-2-3-8(6)7(5)9/h4,6H,2-3H2,1H3/t6-/m1/s1
