15
gdb 29663	3.41942	1.35334	0.97552	2.8185	79.01	-0.1946	-0.022	0.1726	1140.1704	0.111619	-416.798635	-416.789922	-416.788978	-416.832841	31.348	
C	 0.0742433822	 1.4236874017	 0.0182640709	-0.330936
N	 0.0505419934	-0.021925027	 0.0291368175	-0.173728
C	 0.0794861087	-0.7765063652	-1.121051992	 0.467223
N	 0.1157218317	-0.330126562	-2.3064987135	-0.620286
O	 0.0612445619	-2.1054386824	-0.7197331848	-0.210633
C	 0.0298258884	-2.1368924588	 0.6506613152	-0.152815
C	 0.0243931631	-0.8814834545	 1.1415052092	 0.169129
C	-0.0054930131	-0.4350204093	 2.4747671782	 0.266579
C	-0.0307204515	-0.0333199979	 3.6100639225	-0.452909
H	 1.0218378216	 1.7936542139	-0.3866534888	 0.146383
H	-0.7360781447	 1.805200477	-0.6091503739	 0.15355
H	-0.0501309919	 1.7828773417	 1.0404267078	 0.145376
H	 0.1264662347	-1.0884189866	-2.982570743	 0.227057
H	 0.0125155656	-3.1000402814	 1.1276400451	 0.162349
H	-0.0529578401	 0.3081393508	 4.6155803896	 0.203662
35.1017	107.6301	143.649	145.6079	249.5694	290.0295	423.69	454.9005	539.0658	550.2469	592.7711	617.8521	692.5818	700.3022	713.6479	717.3805	742.9079	790.7662	963.3767	1017.7407	1109.9357	1161.1648	1191.8404	1199.2297	1266.7842	1360.6828	1427.5532	1468.4677	1478.5785	1519.4523	1654.5717	1782.8777	2233.2319	3042.1777	3102.3948	3152.1982	3307.4727	3499.4014	3548.2745
CN1C(=N)OC=C1C#C	CN1[C@@H]([NH])OC=C1C#C	
InChI=1S/C6H6N2O/c1-3-5-4-9-6(7)8(5)2/h1,4,7H,2H3	InChI=1S/C6H7N2O/c1-3-5-4-9-6(7)8(5)2/h1,4,6-7H,2H3/t6-/m1/s1
