22
gdb 113310	2.46152	1.01344	0.82772	4.3301	88.1	-0.276	0.039	0.315	1510.623	0.19289	-367.231322	-367.22088	-367.219936	-367.267081	37.833	
C	-0.0497623642	 1.5244811537	-0.3588583531	-0.376762
C	-0.0283219788	 0.1076162973	 0.2289324195	-0.211621
C	-1.3923075584	-0.5493136828	 0.1601459932	-0.030286
C	-1.8462730655	-1.3290532219	-1.0397262757	-0.314278
C	-1.5954601822	-2.0623316762	 0.2753198364	 0.150814
C	-0.4266229328	-3.0384087405	 0.3929860667	-0.257662
C	-0.7604848359	-4.4400318362	-0.1295764607	-0.388828
C	-2.7700042754	-2.4652144021	 1.0118874871	 0.249286
N	-3.7025212647	-2.7943215589	 1.6137115337	-0.359035
H	 0.9389845749	 1.9887421995	-0.2984493962	 0.117103
H	-0.3533926985	 1.5103769518	-1.4106980215	 0.121717
H	-0.7539329921	 2.1661641692	 0.1813206382	 0.121552
H	 0.7117231922	-0.4938580966	-0.3090467943	 0.101691
H	 0.30518448	 0.148440485	 1.2733582698	 0.109435
H	-2.1729460395	 0.0275821171	 0.6497849905	 0.108383
H	-2.8675204292	-1.2259450801	-1.3864033376	 0.134899
H	-1.1187588611	-1.518287182	-1.8233385273	 0.121432
H	 0.424857229	-2.6345512571	-0.1619441789	 0.104792
H	-0.1156948175	-3.0980921117	 1.4426424722	 0.115963
H	 0.101351075	-5.1055230397	-0.0253920785	 0.117172
H	-1.5954115044	-4.8795096718	 0.424258853	 0.144476
H	-1.039502681	-4.409927896	-1.1878757765	 0.119759
63.0897	85.8017	127.4973	137.6489	157.422	213.8044	236.9322	266.5511	306.1663	335.8622	413.5747	473.2788	576.3895	628.5865	653.6227	768.5946	794.0677	810.8478	889.5248	924.6811	939.8526	958.5173	1003.0915	1036.9791	1063.8302	1071.3687	1098.463	1126.2498	1140.121	1198.9091	1246.5353	1285.4483	1302.0847	1321.4387	1349.6855	1363.0333	1409.8225	1413.2453	1429.3615	1478.1163	1480.6488	1492.4627	1496.9284	1497.8911	1506.4914	1508.2826	2342.9329	3029.4467	3035.2991	3039.0321	3041.2604	3067.5204	3087.3286	3105.392	3110.0306	3110.765	3118.1891	3131.9086	3142.0257	3225.034
CCC1CC1(CC)C#N	CC[C@H]1C[C@]1(CC)C#N	
InChI=1S/C8H13N/c1-3-7-5-8(7,4-2)6-9/h7H,3-5H2,1-2H3	InChI=1S/C8H13N/c1-3-7-5-8(7,4-2)6-9/h7H,3-5H2,1-2H3/t7-,8+/m0/s1
