21
gdb 93752	1.95103	1.61352	0.99057	3.6944	88.48	-0.2411	-0.0492	0.1919	1262.5264	0.181787	-387.136409	-387.12688	-387.125936	-387.170663	35.18	
C	 0.4360632133	 1.6004471539	-0.130220965	-0.399171
C	-0.01027201	 0.1400520503	 0.0587386405	-0.069714
C	 0.39394274	-0.7892984526	-1.1171702707	-0.23411
C	 1.664563257	-1.529951409	-0.6398438248	-0.293218
C	 1.606765637	-1.4201740911	 0.8674313606	 0.22429
C	 2.5342582355	-2.2327649907	 1.7134332672	-0.499928
C	 0.6781758866	-0.5155788011	 1.2448261264	 0.144341
C	 0.3458976585	-0.1461093072	 2.6189250798	 0.063989
O	-0.4802115785	 0.6947229722	 2.9149528943	-0.281795
H	 1.5176162925	 1.6657538999	-0.2961913427	 0.10467
H	-0.0654128416	 2.047743838	-0.9949167305	 0.109998
H	 0.1889895467	 2.1930297894	 0.7537751369	 0.14112
H	-1.0953696593	 0.14115199	 0.2064594438	 0.087771
H	-0.4010414434	-1.5178444988	-1.3038309467	 0.104338
H	 0.5515610375	-0.2372068277	-2.047492011	 0.099102
H	 1.707388627	-2.5731509768	-0.9753555399	 0.108354
H	 2.5885268358	-1.0600412711	-1.0081111229	 0.116234
H	 3.5763866824	-2.0231806725	 1.4401273036	 0.137818
H	 2.4214729518	-2.0502049139	 2.7830019083	 0.13667
H	 2.3789933915	-3.3032354984	 1.529356041	 0.137112
H	 0.8934526595	-0.6943314828	 3.4155942117	 0.062128
85.3478	122.6333	145.6485	171.9185	195.1792	246.2995	261.224	300.5438	366.2368	398.338	512.631	571.1348	580.861	682.6818	752.8072	786.5132	894.8721	918.3842	947.6075	981.785	1007.5114	1012.9501	1042.2932	1085.3028	1105.2698	1119.3118	1193.1405	1201.6718	1226.2309	1264.0916	1315.1566	1325.8691	1351.6705	1371.9642	1400.3269	1409.718	1435.3184	1472.6958	1477.4908	1481.6097	1491.6009	1498.4494	1507.8567	1688.6229	1764.3529	2892.0316	3003.3803	3023.9034	3029.3477	3041.435	3047.7841	3060.072	3067.5293	3095.0977	3098.9537	3125.6718	3136.861
CC1CCC(C)=C1C=O	C[C@H]1CCC(=C1C=O)C	
InChI=1S/C8H12O/c1-6-3-4-7(2)8(6)5-9/h5-6H,3-4H2,1-2H3	InChI=1S/C8H12O/c1-6-3-4-7(2)8(6)5-9/h5-6H,3-4H2,1-2H3/t6-/m0/s1
