21
gdb 63402	3.70095	0.95898	0.9157	2.6259	78.84	-0.2538	0.0707	0.3245	1371.6805	0.180881	-424.195958	-424.186708	-424.185764	-424.229956	35.415	
C	-0.2296670386	 1.484492561	-0.1284635971	-0.447252
C	 0.0348267941	-0.0043764037	 0.0767620969	 0.418146
O	-1.177816416	-0.7292619419	 0.1501808679	-0.473318
C	 1.1382260409	-0.5773046826	-0.866638278	-0.299599
C	 2.1570110386	-0.4313464115	 0.3029018292	-0.008061
C	 0.9559339095	-0.3181498545	 1.2805074292	-0.283173
C	 3.1497747315	-1.545109821	 0.4968214386	 0.069458
C	 3.4874535087	-2.0981604989	 1.8143371398	-0.181445
O	 2.6337608395	-2.811620893	 0.9159983196	-0.230529
H	 0.7000889878	 2.0623533539	-0.1370945414	 0.117565
H	-0.7332978263	 1.659996586	-1.087751994	 0.104749
H	-0.8691720248	 1.869558521	 0.6719231146	 0.12392
H	-1.7203164979	-0.4877169664	-0.608601005	 0.27157
H	 0.9358270856	-1.6307491502	-1.075503886	 0.1191
H	 1.3449876767	-0.045649782	-1.7996074945	 0.087301
H	 2.7067916736	 0.5134055458	 0.2280224447	 0.072445
H	 1.007244181	 0.4206714394	 2.0839802861	 0.09099
H	 0.7004264192	-1.2986044527	 1.6888990935	 0.130531
H	 3.9066344079	-1.624147807	-0.2870739509	 0.088317
H	 4.4663420978	-2.5447237788	 1.9834295179	 0.11363
H	 2.9975710912	-1.7025187628	 2.702850639	 0.115654
75.8085	89.7693	169.8271	218.9773	262.0925	264.8935	304.5249	362.0663	396.7568	436.3941	482.5617	572.2267	586.1777	725.8693	813.8508	830.0588	877.0279	899.6814	905.3144	951.7761	963.5714	978.7959	1015.293	1047.6893	1086.8078	1104.238	1134.8531	1152.7518	1163.1395	1175.3228	1189.4551	1225.26	1259.5722	1271.3347	1289.7582	1300.9464	1366.0929	1384.0165	1405.2282	1429.966	1463.6461	1485.696	1490.7634	1499.926	1528.7449	3019.4217	3043.0387	3053.1579	3063.0616	3081.1786	3086.217	3086.6757	3109.0821	3119.4645	3128.8688	3170.6548	3798.3207
CC1(O)CC(C1)C1CO1	C[C@@]1(O)C[C@@H](C1)[C@H]1CO1	
InChI=1S/C7H12O2/c1-7(8)2-5(3-7)6-4-9-6/h5-6,8H,2-4H2,1H3	InChI=1S/C7H12O2/c1-7(8)2-5(3-7)6-4-9-6/h5-6,8H,2-4H2,1H3/t5-,6-,7+/m1/s1
