19
gdb 65937	2.24788	1.51411	1.31753	1.2799	81.13	-0.2322	0.0411	0.2733	1095.5635	0.156546	-385.822253	-385.813145	-385.8122	-385.855861	34.873	
C	-0.143573964	 1.5322582254	 0.0859327566	-0.450194
C	-0.0476163894	 0.0023024786	 0.0202259819	-0.033685
C	 1.1910468949	-0.5076847774	-0.7802430963	-0.107932
O	 1.8820723968	-0.872976491	 0.4310450535	-0.306751
C	 0.7135832798	-0.6274726005	 1.2093676652	 0.452962
C	 0.7761734252	-0.223680672	 2.6411517474	-0.341316
C	 0.2275573615	-1.5889804686	 2.2376082939	-0.343597
C	-1.3228757375	-0.6044390994	-0.3179099614	 0.298226
C	-2.384747579	-1.0986406081	-0.5911212724	-0.457729
H	 0.8283556977	 1.9588315543	 0.3495485291	 0.128746
H	-0.4572447899	 1.9385500482	-0.8801650231	 0.126641
H	-0.8746249547	 1.8441137893	 0.837107194	 0.127655
H	 0.9886382614	-1.3756574168	-1.4166889154	 0.111912
H	 1.731471907	 0.2570556077	-1.3482092206	 0.106881
H	 1.7596165782	-0.1936928995	 3.0985504438	 0.125835
H	 0.083759013	 0.5289141914	 3.0046890678	 0.117427
H	-0.8409386282	-1.7634402091	 2.3110667597	 0.125239
H	 0.8505870844	-2.4550973452	 2.4330997924	 0.124074
H	-3.3189501373	-1.5397740373	-0.837313076	 0.195607
63.3732	126.2432	174.0096	206.8852	242.9915	282.4944	318.0377	354.2342	476.1236	501.7248	538.8088	598.651	623.8779	629.7459	641.6866	757.0672	868.5273	875.4077	894.586	940.9554	950.575	982.9612	991.1247	1026.6512	1049.6124	1069.2228	1137.335	1154.7344	1177.6831	1186.0534	1224.1655	1258.4117	1347.6158	1370.5605	1408.2841	1447.0375	1485.4679	1493.8789	1496.0162	1524.4604	2232.7819	3029.7131	3040.866	3084.1052	3116.1613	3120.8436	3127.1117	3130.7006	3210.4503	3225.5697	3500.3223
CC1(COC11CC1)C#C	C[C@]1(COC21CC2)C#C	
InChI=1S/C8H10O/c1-3-7(2)6-9-8(7)4-5-8/h1H,4-6H2,2H3	InChI=1S/C8H10O/c1-3-7(2)6-9-8(7)4-5-8/h1H,4-6H2,2H3/t7-/m1/s1
