19
gdb 51521	4.80532	0.74373	0.6876	2.4596	83.38	-0.2518	-0.0257	0.2261	1610.5339	0.156997	-385.855161	-385.845719	-385.844775	-385.890733	34.091	
O	-0.5625876303	 1.6877892933	 1.308232756	-0.238205
C	 0.1748774813	 1.2690593562	 0.4530545931	 0.160513
C	 1.423293592	 1.9693595246	-0.0314494519	-0.283179
C	 1.2500839408	 2.450854299	-1.4815390329	-0.008877
C	 0.3204852179	 3.6910635616	-1.6329613134	-0.241917
C	 1.5888247996	 4.6013359356	-1.7349875541	-0.144344
C	 2.4346788769	 3.3130424778	-2.004534236	-0.247173
C	 1.6052458916	 5.658002097	-2.7239699423	 0.296677
C	 1.6123924299	 6.5191609545	-3.5638879122	-0.443913
H	-0.0476040548	 0.3107357004	-0.0737384862	 0.073327
H	 1.6386729774	 2.8043836877	 0.642683001	 0.120575
H	 2.2602709298	 1.2587738709	 0.0117547135	 0.114225
H	 0.9887260311	 1.5990784282	-2.1165598821	 0.077884
H	-0.2361542647	 3.6794808741	-2.5720393713	 0.116122
H	-0.3686520079	 3.9021245169	-0.8122712161	 0.123562
H	 1.8351966049	 5.0150580032	-0.7517971904	 0.107604
H	 3.3867714941	 3.2327327742	-1.4742001504	 0.106028
H	 2.6094569021	 3.169614082	-3.0727499064	 0.116388
H	 1.6195134982	 7.2853905227	-4.298773038	 0.194703
39.6468	61.1097	92.1338	137.0062	213.0054	231.8002	339.5662	374.0945	506.7332	511.9499	518.2875	614.2734	629.2928	636.2579	773.378	825.0521	872.9728	900.0153	926.2187	950.6365	970.1417	1035.9703	1038.9447	1092.8705	1111.6219	1130.7071	1189.5747	1219.7126	1243.3085	1249.7919	1268.6911	1279.0778	1301.5732	1352.6882	1379.2305	1429.4588	1465.9303	1474.6766	1494.6939	1832.3154	2233.3086	2852.2286	3018.3566	3048.2084	3053.8888	3065.5023	3073.8435	3093.4036	3124.8015	3130.92	3504.7845
O=CCC1CC(C1)C#C	O=CC[C@H]1C[C@@H](C1)C#C	
InChI=1S/C8H10O/c1-2-7-5-8(6-7)3-4-9/h1,4,7-8H,3,5-6H2	InChI=1S/C8H10O/c1-2-7-5-8(6-7)3-4-9/h1,4,7-8H,3,5-6H2/t7-,8-
