16
gdb 35070	3.90429	1.35635	1.3027	0.4364	81.7	-0.2181	-0.0464	0.1717	1004.2277	0.123949	-363.445248	-363.438158	-363.437214	-363.476651	28.6	
C	-0.0145979524	-1.2170551657	 0.1274198426	-0.449301
C	-0.0327798686	-0.0169419536	 0.061867893	 0.313279
C	-0.0408815681	 1.4378994184	-0.0100415159	-0.213685
C	-0.5675745208	 2.0574827716	 1.29439189	-0.121785
C	 0.2102155648	 3.1102701825	 1.6262664094	 0.009694
C	 1.4098370029	 2.7621130912	 2.5087185173	-0.164756
N	 2.1750334296	 2.5980785205	 1.1839348052	-0.144936
C	 1.355352912	 2.1240483855	-0.041799145	-0.020801
C	 1.1846150543	 3.4734010871	 0.5017300621	-0.095365
H	 0.0005950579	-2.2776775949	 0.1764099813	 0.200002
H	-0.5571257657	 1.7429416741	-0.9331877536	 0.121336
H	-0.9775096744	 1.3903659754	 2.0463294321	 0.112067
H	 1.9118564649	 3.5772092209	 3.0380677544	 0.120849
H	 1.331643127	 1.8743641906	 3.141221659	 0.120173
H	 2.0448737955	 1.8945652159	-0.8483858265	 0.112888
H	 1.4309546809	 4.4400361107	 0.0780504344	 0.100341
92.0472	155.4693	290.506	397.3681	411.5376	496.8419	522.7787	578.0831	623.1503	643.7792	682.4726	719.534	740.7333	799.5544	862.0536	887.6593	904.6247	929.3792	1000.3603	1010.4711	1018.0911	1046.4174	1066.8486	1080.4739	1122.5923	1171.832	1212.1134	1238.1408	1261.2444	1279.5427	1315.2968	1348.6987	1508.452	1573.2454	2235.7215	2982.3739	3050.0111	3117.3768	3168.8681	3175.1364	3182.0387	3504.4176
C#CC1C=C2CN3C1C23	C#C[C@H]1[CH][C]2CN3[C@@H]1[C@@H]23	
InChI=1S/C8H7N/c1-2-5-3-6-4-9-7(5)8(6)9/h1,3,5,7-8H,4H2	InChI=1S/C8H7N/c1-2-5-3-6-4-9-7(5)8(6)9/h1,3,5,7-8H,4H2/t5-,7-,8+,9?/m0/s1
