21
gdb 92369	2.36205	1.88918	1.3719	2.5397	76.6	-0.2457	0.0772	0.3229	1028.4323	0.18391	-424.246862	-424.238827	-424.237882	-424.27878	32.541	
C	-0.0673041567	 1.5637325594	-0.0593636763	-0.419956
C	 0.0445163604	 0.0475109804	 0.0182202367	 0.133839
O	 0.8195390345	-0.4407555421	-1.1051051293	-0.286
C	 1.8385824019	-1.2485310439	-0.5456488857	 0.208212
C	 2.2504263496	-0.4893138828	 0.7155755581	-0.293377
C	 0.7977130524	-0.5466402639	 1.2465945088	 0.22642
C	 0.4766653065	 0.0571494193	 2.6010200871	-0.494319
C	 0.5830454723	-2.0749728828	 1.1512762073	-0.09962
O	 1.2866589263	-2.4569548798	-0.0459267837	-0.271362
H	 0.9008134264	 2.0532791407	 0.0828979034	 0.117593
H	-0.4438983001	 1.8464661896	-1.0464621556	 0.130883
H	-0.7650802002	 1.9442253525	 0.6933733941	 0.114462
H	-0.9630208775	-0.3873516712	-0.0455260999	 0.075164
H	 2.5696209882	-1.4843207429	-1.3170422117	 0.088996
H	 2.9618881611	-1.0381265897	 1.336731729	 0.104738
H	 2.619702459	 0.5176240353	 0.5153555328	 0.105967
H	 0.7112969708	 1.1248884757	 2.6334610137	 0.125006
H	-0.5859955252	-0.0576923933	 2.8451092533	 0.119423
H	 1.0520717146	-0.4358590897	 3.3916262768	 0.120155
H	 1.011199317	-2.6014227551	 2.0151564426	 0.092802
H	-0.4753171012	-2.3491182853	 1.0630203885	 0.100974
147.25	215.5834	229.241	257.0718	279.6641	330.0391	348.2812	441.1179	504.9596	538.803	597.7389	633.7582	765.0599	800.6941	853.9316	889.6009	911.9274	913.0817	956.0217	974.4027	997.0742	1016.2541	1059.7221	1069.0982	1086.212	1116.4439	1138.3502	1184.7356	1214.2183	1221.6359	1266.1859	1273.0437	1304.5144	1314.0848	1360.7711	1384.1737	1394.4269	1408.7464	1420.2026	1483.5969	1490.1648	1494.4139	1499.6909	1503.7252	1525.7205	2997.9139	3004.2809	3029.9559	3039.9251	3049.9889	3076.2026	3091.0222	3108.2784	3112.7106	3117.4654	3135.4893	3148.3281
CC1OC2CC1(C)CO2	C[C@H]1O[C@H]2C[C@]1(C)CO2	
InChI=1S/C7H12O2/c1-5-7(2)3-6(9-5)8-4-7/h5-6H,3-4H2,1-2H3	InChI=1S/C7H12O2/c1-5-7(2)3-6(9-5)8-4-7/h5-6H,3-4H2,1-2H3/t5-,6+,7-/m1/s1
