25
gdb 117663	2.74135	0.94881	0.85798	2.1631	85.87	-0.2541	0.0778	0.3319	1537.2609	0.225464	-426.626678	-426.615028	-426.614083	-426.663019	43.052	
C	-0.2732766994	 1.3706959012	-0.1337160167	-0.229238
O	-0.1622752289	-0.0328847184	-0.1076015619	-0.253266
C	 0.7886353993	-0.5420860298	-1.0280917189	-0.105271
C	 0.7133815575	-2.0784407758	-0.9594175083	 0.362714
C	 1.2098604027	-2.5669436297	 0.4116012815	-0.432648
O	-0.6579111727	-2.4460890233	-1.1292060433	-0.483809
C	 1.4602363018	-2.7137944658	-2.1599783461	 0.030291
C	 2.9403211818	-2.3164417179	-2.2600853729	-0.409509
C	 1.3061268167	-4.2419078858	-2.1846181059	-0.408624
H	 0.6776696253	 1.8566718055	 0.1329414627	 0.108957
H	-0.5800112433	 1.7357158085	-1.1259939614	 0.109709
H	-1.0324928875	 1.6536380934	 0.5994362555	 0.129397
H	 0.5439934298	-0.2020223154	-2.0472561837	 0.088623
H	 1.7929859592	-0.1728023994	-0.7731936069	 0.090568
H	 0.6756060298	-2.0362388356	 1.204165897	 0.121852
H	 1.0202564312	-3.6360357603	 0.5261424993	 0.122197
H	 2.2804966254	-2.3838572464	 0.5488048379	 0.106595
H	-1.1631681474	-1.8272339492	-0.587161687	 0.282407
H	 0.9439120683	-2.3227308405	-3.0467771202	 0.076722
H	 3.0830552192	-1.2349529203	-2.3458436118	 0.111313
H	 3.5130524203	-2.6638356203	-1.39335349	 0.117188
H	 3.3887603028	-2.7740181462	-3.1479232585	 0.113591
H	 0.259151252	-4.5286028298	-2.0693394646	 0.137553
H	 1.6722601498	-4.6424181308	-3.1356096244	 0.103738
H	 1.8846003062	-4.7192064077	-1.3862451615	 0.10895
64.1813	88.6692	122.8127	145.8563	212.9527	234.3014	241.9811	260.0938	280.7582	287.57	317.4774	351.6761	371.4987	412.1884	438.0545	465.9883	503.5035	593.4259	753.9522	866.5199	921.6949	931.682	937.6563	961.5284	979.431	990.8213	1074.8991	1114.5705	1126.8271	1155.8292	1179.0873	1201.4795	1208.4627	1220.7464	1240.3349	1287.5349	1346.6524	1357.2362	1378.5032	1398.0188	1405.0747	1421.9804	1424.8425	1478.229	1485.8972	1486.9249	1491.424	1494.0761	1500.8285	1505.5301	1510.6575	1516.5241	1523.3701	2968.192	2980.3358	3012.152	3018.6762	3025.0374	3033.5111	3037.5939	3046.5768	3093.1154	3099.66	3104.4758	3114.484	3115.4218	3133.7169	3135.7021	3776.8554
COCC(C)(O)C(C)C	COC[C@@](C)(O)C(C)C	
InChI=1S/C7H16O2/c1-6(2)7(3,8)5-9-4/h6,8H,5H2,1-4H3	InChI=1S/C7H16O2/c1-6(2)7(3,8)5-9-4/h6,8H,5H2,1-4H3/t7-/m1/s1
