15
gdb 15039	2.80106	1.78382	1.15842	2.6323	63.21	-0.2562	-0.0533	0.2029	990.1929	0.115832	-399.771225	-399.763082	-399.762138	-399.80448	28.102	
O	 0.1280965647	 0.0760208603	-0.0274310869	-0.226153
C	 0.1760792058	 1.2650302151	 0.1195908155	 0.157467
C	 1.4779400902	 2.0799129375	 0.1383757529	-0.152641
C	 1.4235819835	 3.0396303563	 1.3269784693	 0.135289
O	 0.5884863538	 3.8975548337	 1.4413883259	-0.243752
N	 2.6504849526	 1.2451298981	 0.2113122139	-0.06691
C	 3.030510562	 0.5281498347	-1.0001552929	-0.200759
C	 3.8334815358	 1.6890195935	-0.5319057958	-0.23526
H	-0.7287009003	 1.896293419	 0.2401744063	 0.113789
H	 1.4165082481	 2.7129983445	-0.771279246	 0.110751
H	 2.207687583	 2.8520336974	 2.0900758115	 0.111349
H	 3.3810526105	-0.4873148674	-0.8479964572	 0.131847
H	 2.4189503857	 0.6678124286	-1.8886871189	 0.120242
H	 3.7608994004	 2.6135755015	-1.1026103837	 0.116863
H	 4.7829398142	 1.5379451872	-0.0279519339	 0.127878
76.469	107.8383	126.4448	174.2996	207.1424	280.3443	368.0753	435.3099	530.9332	670.6869	761.9881	814.6344	882.0917	902.5918	930.2356	1015.3618	1061.223	1079.8733	1105.0449	1121.6035	1125.534	1175.8452	1198.1114	1222.8549	1300.8244	1337.7352	1390.6224	1409.2962	1495.1895	1521.9316	1812.5545	1850.9229	2892.6731	2922.211	2927.2709	3100.0935	3113.0526	3189.6373	3205.6207
O=CC(C=O)N1CC1	O=CC(C=O)N1CC1	
InChI=1S/C5H7NO2/c7-3-5(4-8)6-1-2-6/h3-5H,1-2H2	InChI=1S/C5H7NO2/c7-3-5(4-8)6-1-2-6/h3-5H,1-2H2
