16
gdb 19833	3.36058	2.65483	1.81214	1.8709	68.65	-0.238	0.0019	0.2399	748.2046	0.133122	-346.584834	-346.578892	-346.577948	-346.61455	24.567	
C	-0.0340237167	 1.5334684606	 0.0119693521	-0.292195
C	 1.3015832763	 0.807983568	 0.0014807353	-0.079277
C	 2.1637877519	 0.755257003	 1.1970421495	-0.065631
C	 1.8404859405	 0.1025214867	 2.3211942286	-0.08225
C	 0.5745239176	-0.6469247637	 2.4571715613	 0.00549
O	-0.6675528307	 0.1019823231	 2.4533531222	-0.254921
C	-0.3578054716	-0.6876194439	 1.3089025171	 0.025429
C	-0.0147934351	 0.0330109673	 0.0383134888	-0.054124
H	-0.3231090552	 2.0286447357	 0.9307635942	 0.141303
H	-0.3384886643	 2.0245796239	-0.9052500477	 0.112788
H	 1.8308904291	 0.8327407819	-0.9465262236	 0.089519
H	 3.1223824886	 1.2639289714	 1.1320417241	 0.095873
H	 2.526465734	 0.0867883627	 3.1624108078	 0.091295
H	 0.5686753421	-1.4682614887	 3.1718030631	 0.089948
H	-0.9863340816	-1.56941599	 1.1886318067	 0.0901
H	-0.2955283349	-0.4925760581	-0.8677620794	 0.086654
193.1115	241.0522	375.4574	481.8083	524.779	535.7077	648.0829	710.9981	763.4933	789.7735	816.0893	830.4787	887.209	906.6987	942.6958	984.5217	990.2101	1038.1645	1045.9712	1081.3942	1087.7527	1120.0154	1123.9203	1140.1039	1206.9093	1220.6755	1284.0689	1352.0291	1390.4676	1399.4277	1427.9476	1449.5476	1481.4994	1691.9992	3109.8535	3124.66	3141.3966	3144.2297	3156.1855	3170.3244	3181.5502	3241.587
C1C2C=CC3OC3C12	C1[C@H]2C=C[C@H]3O[C@H]3[C@@H]12	
InChI=1S/C7H8O/c1-2-6-7(8-6)5-3-4(1)5/h1-2,4-7H,3H2	InChI=1S/C7H8O/c1-2-6-7(8-6)5-3-4(1)5/h1-2,4-7H,3H2/t4-,5+,6-,7+/m1/s1
