21
gdb 113775	2.90361	1.03822	0.94687	1.9662	78.35	-0.2624	0.0759	0.3383	1350.6914	0.180803	-424.184926	-424.175237	-424.174293	-424.220169	36.116	
C	-2.2776980087	 2.8251380046	 0.7083507099	-0.447104
C	-1.4592418284	 1.5536588217	 0.5668472932	 0.311057
C	-0.0439551371	 1.661816728	 0.0415847801	-0.294707
C	-0.2862316283	 1.3614675342	 1.4990570927	-0.307918
C	-2.2848694204	 0.3213119231	 0.2731803454	-0.025593
O	-3.4399189826	 0.4719906658	-0.5630053816	-0.267295
C	-2.3797447555	-0.3794064092	-1.0237052017	 0.033631
C	-1.7358033631	 0.073777826	-2.3105050163	-0.0877
O	-2.6011329148	-0.1688721234	-3.4086843973	-0.422344
H	-1.6324506124	 3.6759468243	 0.9472995809	 0.110365
H	-2.8177326794	 3.0473031784	-0.2161931495	 0.129186
H	-3.0195913791	 2.7293666197	 1.5091969197	 0.120246
H	 0.3448958662	 0.8591823795	-0.5747216713	 0.115982
H	 0.3216580774	 2.6468630779	-0.2299265922	 0.113875
H	-0.086765126	 2.1366910651	 2.231209486	 0.113426
H	-0.0700242836	 0.3556579267	 1.8465437228	 0.111466
H	-2.4947844302	-0.2884605424	 1.1556956493	 0.093212
H	-2.6342574809	-1.4412644646	-1.0068539159	 0.095782
H	-1.4605320718	 1.1335408046	-2.2389479095	 0.103652
H	-0.8256234058	-0.5038368114	-2.5064429425	 0.108835
H	-3.4219134453	 0.3009509013	-3.2219989821	 0.291946
28.3665	100.7888	137.43	193.3627	214.3192	262.0798	296.4267	339.3228	362.0104	406.103	459.2785	492.8333	595.9315	707.3828	789.129	809.9323	852.3318	869.2423	925.8039	946.057	954.586	997.2609	1037.7102	1055.457	1067.5807	1078.972	1086.9563	1123.6516	1142.6803	1161.3976	1192.2598	1230.1197	1275.5392	1316.0656	1340.9701	1354.5831	1394.4949	1411.5232	1429.0888	1466.4869	1472.9101	1486.2462	1497.0457	1501.062	1509.018	3024.2694	3032.5229	3067.6383	3074.3839	3096.8128	3097.54	3114.8107	3123.8177	3132.6429	3204.3229	3221.3145	3801.4652
CC1(CC1)C1OC1CO	CC1(CC1)[C@H]1O[C@H]1CO	
InChI=1S/C7H12O2/c1-7(2-3-7)6-5(4-8)9-6/h5-6,8H,2-4H2,1H3	InChI=1S/C7H12O2/c1-7(2-3-7)6-5(4-8)9-6/h5-6,8H,2-4H2,1H3/t5-,6-/m0/s1
