15
gdb 130076	5.04266	1.3575	1.23074	2.5506	71.47	-0.2122	-0.0102	0.202	997.2598	0.115837	-412.943045	-412.936416	-412.935471	-412.973825	26.593	
N	 0.0424567816	 1.2773675961	 0.1032162909	-0.570165
C	-0.0213669864	-0.0846435839	-0.0518162347	 0.3999
N	-1.1508876322	-0.7771755495	 0.1070855084	-0.342638
N	-0.6486541651	-2.0611724877	 0.1316471222	 0.021526
C	-0.8931430894	-3.32540079	-0.5984924686	 0.00136
C	-0.3885859766	-3.2394785791	-2.0120381843	-0.267258
C	 0.6087692613	-3.3951624185	-0.8663079644	-0.181161
C	 0.6653315946	-2.0369223535	-0.2047799253	 0.265174
N	 1.1301785107	-0.8159428814	-0.3222736007	-0.371281
H	 0.8034079493	 1.7113875064	-0.396746073	 0.261052
H	-0.8427622581	 1.7519508064	 0.0086394348	 0.260565
H	-1.5708000772	-4.0740638431	-0.2118499585	 0.12611
H	-0.5461689504	-4.1191244405	-2.6311135904	 0.12867
H	-0.4458532443	-2.2945870294	-2.5424927833	 0.146092
H	 1.2785868824	-4.2357342124	-0.7600174231	 0.122054
132.5394	270.818	297.0227	321.4437	393.6358	524.0372	542.2067	583.9601	649.0213	717.5058	772.5658	781.3982	794.7261	852.7184	890.9245	960.4761	971.0316	1005.6026	1023.0184	1048.8494	1090.7696	1098.896	1123.3065	1174.4202	1233.108	1250.3404	1285.8144	1374.2759	1376.3653	1477.3034	1541.5753	1593.8671	1643.5717	3121.7443	3210.221	3215.4804	3230.0879	3579.9074	3691.9539
NC1=NN2C3CC3C2=N1	NC1=NN2[C@H]3C[C@H]3[C]2[N]1	
InChI=1S/C5H6N4/c6-5-7-4-2-1-3(2)9(4)8-5/h2-3H,1H2,(H2,6,8)	InChI=1S/C5H6N4/c6-5-7-4-2-1-3(2)9(4)8-5/h2-3H,1H2,(H2,6,8)/t2-,3+/m1/s1
