17
gdb 125097	2.93223	1.395	1.00412	3.0666	74.62	-0.2462	-0.0078	0.2384	1156.6912	0.137979	-414.163624	-414.155393	-414.154449	-414.197468	29.718	
C	 0.4084424644	 1.4204191949	-0.0172006558	-0.498764
C	 0.119049146	-0.0450015357	-0.0719548738	 0.218826
C	-0.0451809706	-0.8909712712	-1.1539566529	 0.252478
N	-0.3058112028	-2.0940299724	-0.5698397358	-0.230883
N	-0.3011924053	-2.0154708312	 0.7686998169	-0.118498
N	-0.0435952312	-0.7757672366	 1.07166108	-0.243056
C	-0.0138467605	-0.7244621581	-2.620120084	-0.133704
C	 0.8990626412	 0.2559781028	-3.2607226062	-0.231617
N	 1.1649680981	-1.182153515	-3.4021454379	-0.313025
H	 1.4850986649	 1.6269233707	-0.0386708128	 0.133074
H	-0.0500655946	 1.9534546493	-0.8539337618	 0.130396
H	 0.0167215037	 1.8318487993	 0.915843281	 0.149393
H	-0.4892312784	-2.9799579212	-1.0152792248	 0.282524
H	-0.9505454449	-0.9443124979	-3.1293419077	 0.112125
H	 0.5844759335	 0.7561805504	-4.1717252452	 0.128063
H	 1.5495050488	 0.8440509161	-2.6211531764	 0.125712
H	 1.9055544477	-1.4462817542	-2.7553319827	 0.236955
43.3591	94.3012	152.8812	165.3403	266.7103	317.3567	393.9248	475.8243	582.2692	634.4291	695.6046	733.9353	743.1226	833.7058	878.1589	961.4716	983.5866	1005.0136	1033.8628	1066.0469	1100.9602	1111.4329	1139.7841	1178.607	1212.1777	1238.4328	1267.0567	1302.9684	1314.9357	1340.9555	1412.3226	1431.9003	1479.9146	1491.3849	1496.0478	1511.1399	1624.0338	3034.6274	3097.7264	3117.4555	3122.4096	3133.5723	3208.7848	3491.2614	3645.1617
CC1=C(NN=N1)C1CN1	Cc1c([nH]nn1)[C@H]1CN1	
InChI=1S/C5H8N4/c1-3-5(4-2-6-4)8-9-7-3/h4,6H,2H2,1H3,(H,7,8,9)	InChI=1S/C5H8N4/c1-3-5(4-2-6-4)8-9-7-3/h4,6H,2H2,1H3,(H,7,8,9)/t4-/m1/s1
