19
gdb 112006	2.721	1.3956	1.11672	2.3201	75.31	-0.2456	-0.0081	0.2374	1140.58	0.16017	-419.18997	-419.18156	-419.180616	-419.222835	32.194	
C	-0.010549615	 1.5014172981	 0.0174356497	-0.483913
C	 0.0026253049	-0.0058015659	 0.0203443548	 0.314618
C	 0.3873498568	-0.762124566	 1.2400074432	-0.290805
N	 1.3263287366	-0.6900544088	 0.0813482537	-0.160925
C	 1.12719819	-1.8133522703	-0.7729206694	 0.030109
N	 0.0391039936	-1.9135416289	-1.4236228504	-0.229309
C	-0.8008439247	-0.7554852894	-1.0522795188	-0.053493
C	-2.2033399184	-1.2467537123	-0.6770450126	-0.059303
O	-2.7920968741	-1.9537773853	-1.7463243297	-0.421407
H	 0.7214953159	 1.902143833	 0.7231449376	 0.13126
H	 0.2267353958	 1.8893109162	-0.9786914476	 0.130078
H	-0.9997054039	 1.8786473147	 0.2999641078	 0.127247
H	 0.7219431976	-0.2187659658	 2.1187659225	 0.125793
H	-0.0723309084	-1.725152013	 1.4416259092	 0.129259
H	 1.9321294809	-2.5395577215	-0.8480602009	 0.130088
H	-0.9095802709	-0.1175984803	-1.9401975583	 0.096411
H	-2.1443930841	-1.8635703566	 0.2340914596	 0.082782
H	-2.8538059076	-0.3928037824	-0.4571095592	 0.106538
H	-2.1187613549	-2.5746935158	-2.0528192412	 0.294973
107.7931	146.8393	174.0875	190.1988	286.912	303.8762	349.8282	459.5633	471.8048	485.0759	593.7231	614.0694	751.122	793.3291	835.5975	845.4702	937.4999	956.4216	987.0555	994.049	1047.6869	1067.2548	1076.3953	1093.2128	1119.4471	1133.3632	1159.1331	1224.6215	1246.0425	1307.6563	1328.088	1328.7335	1373.5464	1396.9359	1419.5515	1441.548	1485.6418	1493.6091	1502.1489	1509.4959	1676.9909	2974.3683	3017.223	3034.7156	3065.9754	3098.5282	3116.2498	3120.8001	3181.8483	3206.9988	3774.5548
CC12CN1C=NC2CO	C[C@]12CN1C=N[C@H]2CO	
InChI=1S/C6H10N2O/c1-6-3-8(6)4-7-5(6)2-9/h4-5,9H,2-3H2,1H3	InChI=1S/C6H10N2O/c1-6-3-8(6)4-7-5(6)2-9/h4-5,9H,2-3H2,1H3/t5-,6+,8?/m0/s1
