21
gdb 74952	2.95896	1.48088	1.30887	1.3962	83.71	-0.2281	0.0254	0.2535	1085.7503	0.185416	-387.119782	-387.112124	-387.11118	-387.151561	31.154	
C	 0.0234798183	 1.5747451494	 0.0625726577	-0.476669
C	 0.0075316244	 0.0741728211	-0.0170281075	 0.329443
C	-0.0248183265	-0.5940898773	-1.1747833663	-0.166853
C	-0.0430915735	-2.1077521316	-1.2154686161	-0.079275
C	-1.4170383478	-2.6434824636	-0.7628583231	-0.062362
O	-1.4013942073	-2.5404604046	 0.66548103	-0.278752
C	-0.0751297963	-2.1973308428	 1.0973457615	 0.102171
C	 0.823830817	-2.643153293	-0.0597777062	-0.239219
C	 0.0272326327	-0.6768193234	 1.3000893102	-0.292364
H	 0.9123539764	 1.9338030077	 0.5980961285	 0.119837
H	 0.0165172817	 2.0330500721	-0.9301549621	 0.118241
H	-0.8447257045	 1.9512879989	 0.6189071039	 0.123649
H	-0.062315882	-0.0535052609	-2.1173762792	 0.074648
H	 0.2436862362	-2.4895790884	-2.1976692891	 0.065502
H	-2.2550988975	-2.0584468586	-1.1560904122	 0.099925
H	-1.5537663243	-3.6943760216	-1.0594303354	 0.086592
H	 0.111573825	-2.7265070949	 2.0365883831	 0.071066
H	 0.9104720172	-3.7337412138	-0.0904276921	 0.097397
H	 1.8223373518	-2.2023065851	-0.030713047	 0.100971
H	 0.9389902119	-0.4266334688	 1.8642201039	 0.094613
H	-0.8138462329	-0.3532828406	 1.9276036676	 0.11144
127.9967	174.0059	209.4776	317.4164	349.5581	374.4882	412.4005	480.2986	530.4659	563.5045	754.1273	770.6048	827.6727	841.3557	860.3287	879.7187	913.5077	946.7594	959.0332	986.4684	1014.5569	1030.4243	1046.7451	1069.8771	1085.3896	1115.4791	1149.0142	1184.4935	1200.3957	1213.787	1238.2093	1298.6745	1320.1068	1332.8327	1343.6035	1361.4733	1389.2373	1397.3801	1413.5671	1461.367	1478.4887	1487.4391	1492.0644	1522.2744	1726.0664	2986.672	2992.5224	3013.0592	3036.966	3051.655	3058.1838	3064.2739	3066.9946	3088.0831	3108.1906	3117.048	3152.5494
CC1=CC2COC(C2)C1	CC1=C[C@@H]2CO[C@@H](C2)C1	
InChI=1S/C8H12O/c1-6-2-7-4-8(3-6)9-5-7/h2,7-8H,3-5H2,1H3	InChI=1S/C8H12O/c1-6-2-7-4-8(3-6)9-5-7/h2,7-8H,3-5H2,1H3/t7-,8+/m0/s1
