18
gdb 7979	2.81961	1.95648	1.46593	1.7902	67.58	-0.244	-0.0248	0.2192	928.1301	0.152609	-384.974642	-384.966397	-384.965453	-385.007501	30.436	
C	 0.6516334227	 1.3284482439	 0.175877075	-0.392192
C	-0.0922375084	 0.0130014079	-0.0506232036	 0.116928
C	 0.3612926963	-0.7380526877	-1.308368275	-0.351243
C	 1.3752909873	-1.7423627074	-0.7696469248	 0.367668
O	 2.2226331456	-2.3313459728	-1.3871333427	-0.309753
C	 1.1190083361	-1.8649553081	 0.735930832	 0.031743
C	 2.3948492041	-1.7039872022	 1.5621611528	-0.396331
O	 0.1253637436	-0.8991328829	 1.0464864274	-0.284803
H	 1.7370455338	 1.1884705014	 0.1257831294	 0.119812
H	 0.3704533074	 2.0647496251	-0.5848108766	 0.116588
H	 0.4035205524	 1.7340001884	 1.1601717535	 0.129851
H	-1.1690937536	 0.2090646134	-0.0643966507	 0.087723
H	-0.4631949149	-1.3058547161	-1.755982452	 0.137678
H	 0.7984918517	-0.1103715821	-2.0870297244	 0.134367
H	 0.6973895914	-2.8640776487	 0.9245047014	 0.106646
H	 2.8489597533	-0.7220886151	 1.4013583912	 0.121493
H	 2.1707906888	-1.8101397127	 2.6264323364	 0.1269
H	 3.1163431024	-2.4720430042	 1.2694768707	 0.136926
70.5607	83.8688	203.0253	234.8393	257.3497	342.1702	373.5333	415.6569	467.9392	540.7454	642.6476	700.8651	763.0202	807.9839	864.8046	905.4097	942.2458	998.9847	1021.5809	1079.9114	1110.4141	1119.4904	1132.1911	1185.0875	1213.2884	1264.2386	1309.2998	1347.0021	1360.9035	1386.6382	1397.128	1406.8834	1451.4799	1483.163	1490.3903	1493.3413	1496.8633	1853.8459	2990.7957	3032.8831	3043.2262	3046.1469	3056.02	3102.553	3120.2251	3122.8734	3124.1609	3129.9538
CC1CC(=O)C(C)O1	C[C@H]1CC(=O)[C@@H](C)O1	
InChI=1S/C6H10O2/c1-4-3-6(7)5(2)8-4/h4-5H,3H2,1-2H3	InChI=1S/C6H10O2/c1-4-3-6(7)5(2)8-4/h4-5H,3H2,1-2H3/t4-,5+/m0/s1
