19
gdb 61960	2.71075	0.77108	0.62497	3.8315	79.79	-0.2659	0.0039	0.2698	1743.2662	0.155426	-423.023568	-423.013085	-423.012141	-423.060421	36.484	
C	 0.005562897	 1.6080955735	-0.0453417687	-0.398169
C	 0.0071006453	 0.0839522858	-0.0037862585	 0.100376
C	-1.3976020667	-0.5136265767	-0.0031599076	-0.178658
C	-1.4022777782	-2.0533175942	 0.0682901671	-0.367459
C	-2.7497658108	-2.6052822627	 0.1198917822	 0.289465
C	-3.8717152103	-3.0339206757	 0.1624540429	-0.430524
O	 0.6912618259	-0.4199276244	-1.1746039168	-0.189683
C	 1.9906267531	-0.7486951645	-1.0616796111	 0.171109
O	 2.6488216134	-1.1196794145	-1.9865306407	-0.274781
H	 1.0270898328	 1.9992413761	-0.0399011198	 0.12648
H	-0.4921788086	 1.963856741	-0.952093349	 0.13948
H	-0.5215580336	 2.013215872	 0.8236195498	 0.126387
H	 0.5509938076	-0.2632845955	 0.8869482396	 0.088346
H	-1.9461580716	-0.1060785716	 0.8524054665	 0.116904
H	-1.9257069191	-0.1884255199	-0.9057456662	 0.127554
H	-0.8699794788	-2.4548198731	-0.8012262322	 0.154494
H	-0.8399507066	-2.3816329697	 0.9532980652	 0.12613
H	-4.8569192859	-3.4281147787	 0.1975318969	 0.196498
H	 2.3718528651	-0.6476254773	-0.0258343396	 0.076049
40.984	59.0148	106.5002	122.298	152.8301	213.9085	228.7863	257.6937	337.2575	348.2931	442.1815	477.5029	554.1213	612.6572	620.3888	643.7213	775.1971	892.214	945.2548	957.7084	971.1515	1037.6084	1045.7911	1095.4895	1124.7076	1150.0087	1182.7666	1238.9377	1282.0609	1317.3081	1354.2871	1377.2496	1398.732	1412.4384	1440.0264	1472.502	1484.6222	1489.1263	1496.3838	1864.6234	2241.4124	2937.2435	3000.8408	3015.3716	3041.8603	3051.8999	3065.7737	3098.1918	3117.2068	3122.9602	3506.9763
CC(CCC#C)OC=O	C[C@@H](CCC#C)OC=O	
InChI=1S/C7H10O2/c1-3-4-5-7(2)9-6-8/h1,6-7H,4-5H2,2H3	InChI=1S/C7H10O2/c1-3-4-5-7(2)9-6-8/h1,6-7H,4-5H2,2H3/t7-/m0/s1
