18
gdb 86642	2.62719	1.37489	0.93543	2.3757	77.57	-0.2321	0.0072	0.2393	1242.0511	0.149181	-435.305116	-435.296491	-435.295547	-435.338816	31.639	
C	 0.2295445153	 1.5131768833	 0.2879148277	-0.406879
C	 0.2141144459	 0.0411944335	-0.0734084726	 0.109731
C	 1.3625687144	-0.4269660178	-0.9833347572	-0.191386
N	 1.6883432358	-1.7109472052	-0.390891102	-0.108134
C	 2.549833679	-2.6197927762	-0.9603116212	 0.081875
N	 3.0786759921	-2.3844235024	-2.0952963032	-0.475066
C	 1.1473062493	-1.8382396531	 0.8848368828	 0.479855
N	 1.3697334075	-2.8042319941	 1.6693783453	-0.591154
O	 0.3672306956	-0.7522593363	 1.1294860933	-0.267643
H	 1.1804964795	 1.7847130039	 0.755404736	 0.133661
H	 0.0971000363	 2.1211809423	-0.6126189067	 0.129493
H	-0.5806915751	 1.7479470658	 0.9828195314	 0.136918
H	-0.7522091311	-0.2316238753	-0.515837445	 0.100356
H	 1.0673894913	-0.5425789231	-2.0280181049	 0.143638
H	 2.224314024	 0.2518386859	-0.949271458	 0.12406
H	 2.6864635818	-3.4998543474	-0.3279869839	 0.142323
H	 3.6752627945	-3.1625277432	-2.3688538686	 0.228721
H	 0.8423649739	-2.6918919106	 2.5314181865	 0.229631
69.5169	116.7695	153.7071	192.6806	236.6654	276.9269	307.1897	411.8029	446.5393	601.0622	639.6134	667.8059	713.2301	787.2378	824.1698	836.3118	873.5588	936.159	951.9587	1057.7219	1075.6063	1094.2169	1151.1907	1154.8532	1165.1347	1191.8973	1236.7359	1287.1106	1360.7156	1377.1026	1390.0654	1406.2908	1416.9629	1457.7132	1485.4128	1497.134	1525.6847	1710.8255	1779.1908	3021.6689	3030.9592	3044.5943	3109.2711	3117.0565	3118.6486	3128.311	3510.2367	3537.673
CC1CN(C=N)C(=N)O1	C[C@H]1CN([CH][NH])[C]([NH])O1	
InChI=1S/C5H9N3O/c1-4-2-8(3-6)5(7)9-4/h3-4,6-7H,2H2,1H3	InChI=1S/C5H9N3O/c1-4-2-8(3-6)5(7)9-4/h3-4,6-7H,2H2,1H3/t4-/m0/s1
