19
gdb 55701	3.50078	1.07166	1.02677	13.7959	75.58	-0.1658	-0.0066	0.1592	1220.3581	0.160601	-456.294492	-456.285624	-456.28468	-456.328902	33.561	
N	-0.1130593968	 1.4521674575	 0.046363078	-0.582453
C	-0.006686156	-0.0048882322	-0.122776436	 0.3769
C	 0.8478555827	-0.4834202896	-1.274024631	-0.470298
C	 2.3687991387	-0.188567863	-0.9362957567	 0.372771
O	 2.5408658261	 0.1545450687	 0.2739726557	-0.479861
O	 3.1741335951	-0.3339029194	-1.8486405349	-0.431873
C	 0.3975002801	-0.5380691111	 1.269690054	-0.176767
N	-1.1617516205	-0.5812965506	 1.6040118205	-0.294316
H	-1.5485691196	-1.322223582	 2.1850407747	 0.295365
H	-1.4177265924	 0.3365033807	 1.966988376	 0.307309
C	-1.4185385285	-0.6083079948	 0.1088583787	-0.241579
H	 0.8513531506	 1.7597970157	 0.1882938561	 0.262143
H	-0.4170493026	 1.8695658038	-0.8309740148	 0.231543
H	 0.7289770205	-1.5628161358	-1.4362024035	 0.086823
H	 0.5679229615	 0.0133302783	-2.2091015306	 0.098832
H	 0.767533183	-1.5597884632	 1.2862744184	 0.162458
H	 0.9229019735	 0.1096446288	 1.9574833275	 0.185448
H	-2.2985024472	-0.0348877828	-0.1818599958	 0.146554
H	-1.4994058383	-1.6488548091	-0.2070618262	 0.151
33.6832	74.2464	156.2865	213.5183	293.7168	356.4938	364.354	422.6145	449.5766	488.242	579.8585	590.9552	644.1475	685.1803	776.363	837.2859	872.8835	880.713	909.4682	934.3077	955.2498	965.8511	1029.5222	1045.3377	1106.2218	1145.539	1190.1881	1214.7011	1232.8427	1263.0169	1280.7356	1312.4988	1320.3058	1327.3825	1360.3875	1452.0446	1463.459	1489.2918	1589.7311	1648.9148	1776.6244	3022.3479	3078.0056	3095.2704	3156.6398	3169.4811	3266.7177	3437.8336	3458.6417	3524.8097	3552.2079
NC1(CC([O-])=O)C[NH2+]C1	NC1(CC(=O)[O])C[NH2]C1	
InChI=1S/C5H10N2O2/c6-5(1-4(8)9)2-7-3-5/h7H,1-3,6H2,(H,8,9)	InChI=1S/C5H10N2O2/c6-5(1-4(8)9)2-7-3-5/h1-3,6-7H2
