17
gdb 57723	3.72823	0.8877	0.87458	1.4762	71.7	-0.2738	0.0057	0.2795	1364.4025	0.133276	-455.147887	-455.137922	-455.136978	-455.183144	35.13	
C	 0.1098773316	 1.4193296844	 0.2652620494	-0.43256
C	-0.2290951701	-0.0560736761	 0.015325651	 0.176284
O	-0.0957453899	-0.837895055	 1.1920147161	-0.436592
C	-1.696551266	-0.2393794411	-0.4362768039	-0.092361
O	-2.5878814312	 0.3723634315	 0.4719416277	-0.188361
C	-3.0331017527	-0.3778549511	 1.5115970327	 0.133674
N	-3.7015077808	 0.1729191994	 2.4254482438	-0.441676
C	 0.6434778533	-0.6046293996	-1.0531545238	 0.258535
N	 1.3244476085	-1.0356292816	-1.8812959124	-0.325456
H	 1.1411058649	 1.5173019484	 0.6182703074	 0.128651
H	 0.0124324462	 2.0035675255	-0.6535660501	 0.143875
H	-0.5739639945	 1.8177607472	 1.0162832145	 0.167005
H	 0.7368519132	-0.6130604425	 1.6218562337	 0.298007
H	-1.8455306968	 0.2432281841	-1.4046683834	 0.139773
H	-1.9009838205	-1.311588927	-0.5389963404	 0.134031
H	-2.7641297378	-1.4370904481	 1.4300917635	 0.104016
H	-3.9924385376	-0.5218429784	 3.1099727042	 0.233154
61.3861	72.9156	146.0402	153.8941	198.2847	244.9047	262.7335	291.9459	315.1014	392.8958	407.2767	444.2809	566.4715	588.743	657.5889	753.5566	822.2626	894.1843	955.8847	970.4855	992.9459	1038.0138	1111.9072	1152.0958	1171.7556	1185.5129	1260.583	1346.72	1361.9015	1396.8006	1412.0916	1425.4687	1482.0621	1492.451	1493.8874	1748.5145	2352.3308	3040.5516	3049.4668	3060.2507	3117.5568	3122.0542	3153.7154	3521.4123	3810.6285
CC(O)(COC=N)C#N	C[C@@](O)(CO[CH][NH])C#N	
InChI=1S/C5H8N2O2/c1-5(8,2-6)3-9-4-7/h4,7-8H,3H2,1H3	InChI=1S/C5H8N2O2/c1-5(8,2-6)3-9-4-7/h4,7-8H,3H2,1H3/t5-/m0/s1
