17
gdb 16501	3.73879	2.27902	1.94283	1.5191	66.67	-0.2289	0.079	0.3079	759.72	0.143927	-363.796975	-363.79064	-363.789696	-363.826988	26.103	
C	 0.0043853703	 1.475839218	 0.0183942169	-0.500638
C	 0.0338503407	-0.0244981855	-0.0042767238	 0.351609
N	-0.8533096591	-0.8521132268	 0.8508251492	-0.37546
C	 0.6231094283	-0.9091807823	 1.0248837209	-0.098217
C	 1.337533293	-1.9228466331	 0.1034567048	 0.064944
C	 0.2859692857	-2.2761304909	-0.9715166619	-0.231358
C	 0.5460289536	-0.7829995035	-1.2618805753	 0.014037
O	 1.9513313714	-1.0072828235	-0.8788857624	-0.307243
H	 0.933099934	 1.8791255431	-0.3984980112	 0.139969
H	-0.8309710202	 1.8712028781	-0.5712930431	 0.124247
H	-0.0976859942	 1.8553501542	 1.0408673736	 0.11426
H	-1.2359231352	-0.2545144426	 1.5837278305	 0.224516
H	 1.0840966602	-0.5481995374	 1.9366940352	 0.094723
H	 2.0359761946	-2.6372043561	 0.5373305337	 0.078198
H	 0.7241194613	-2.9025615666	-1.7475680561	 0.105352
H	-0.7063888089	-2.603784309	-0.6708323487	 0.12716
H	 0.4244342047	-0.315517856	-2.2391395723	 0.0739
197.8248	219.2916	283.0592	410.0645	463.833	525.526	602.1003	610.4798	712.2051	799.4751	836.6101	864.7465	873.6096	881.4725	914.1214	926.504	965.5776	999.34	1021.4674	1043.2796	1066.7378	1101.147	1118.0174	1146.9824	1192.6183	1233.3099	1245.916	1268.547	1296.5064	1317.137	1339.4674	1410.2101	1438.8413	1471.3476	1485.9425	1498.1752	3024.3619	3086.9081	3100.8009	3103.0221	3122.5096	3131.9861	3178.4844	3184.8279	3462.3985
CC12NC1C1CC2O1	C[C@]12N[C@H]1[C@H]1C[C@@H]2O1	
InChI=1S/C6H9NO/c1-6-4-2-3(8-4)5(6)7-6/h3-5,7H,2H2,1H3	InChI=1S/C6H9NO/c1-6-4-2-3(8-4)5(6)7-6/h3-5,7H,2H2,1H3/t3-,4+,5+,6-/m1/s1
