15
gdb 28379	3.18935	1.43595	0.99618	2.6972	76.1	-0.2126	-0.0521	0.1605	1124.3528	0.112188	-453.979793	-453.971728	-453.970783	-454.012354	30.284	
C	-0.0309842699	 1.5060558806	 0.00492492	-0.456997
C	-0.0087523804	 0.008106949	-0.0357844871	 0.269497
N	-0.0378404755	-0.6215449507	-1.164174465	-0.280962
C	-0.0170027033	-1.9996332197	-1.1873257175	-0.194722
C	 0.0337115671	-2.702519562	-0.0378263241	 0.433365
O	 0.0577469772	-4.0361590158	 0.0517358088	-0.398186
O	 0.0657603972	-2.0939735467	 1.1651514852	-0.262168
C	 0.0469656689	-0.694776761	 1.2540187659	 0.32405
N	 0.0767018477	-0.1195661501	 2.3821928905	-0.514007
H	 0.8569341354	 1.893767225	 0.5154937974	 0.142365
H	-0.0726611321	 1.8948131702	-1.0131320689	 0.133996
H	-0.8928745004	 1.8661613946	 0.5766388842	 0.142381
H	-0.0422077994	-2.5000532616	-2.1448215583	 0.124345
H	 0.0938723528	-4.2777784654	 0.9863414135	 0.312339
H	 0.1136757148	-0.7930158066	 3.1473713354	 0.224705
97.9215	152.1177	168.7174	297.4126	314.2099	340.3305	354.2477	440.5406	490.8369	516.5091	560.5227	674.8552	721.1316	756.4121	765.3492	821.7301	850.9547	971.6649	986.7102	1040.414	1055.2396	1184.6384	1201.4512	1221.4221	1282.5826	1354.8952	1406.5471	1430.0535	1468.4354	1469.6859	1611.8697	1693.9642	1737.5738	3041.7218	3094.3828	3151.1615	3228.9117	3492.6331	3795.0197
CC1=NC=C(O)OC1=N	CC1=C(OC(=C[N]1)O)[NH]	
InChI=1S/C5H6N2O2/c1-3-5(6)9-4(8)2-7-3/h2,6,8H,1H3	InChI=1S/C5H6N2O2/c1-3-5(6)9-4(8)2-7-3/h2,6,8H,1H3
