19
gdb 71754	3.35639	1.83824	1.54351	1.8532	77.01	-0.2359	0.0718	0.3077	915.7705	0.161512	-385.837688	-385.831204	-385.830259	-385.86808	27.849	
C	 0.0405732743	 1.5683932872	-0.0076811751	-0.509461
C	 0.062291993	 0.0609306808	-0.0107406128	 0.339187
C	 0.8603164095	-0.784009067	-1.0283793385	-0.292953
C	 0.6958539565	-1.9204113354	 0.0103694076	-0.056954
C	-0.8168439459	-2.218889852	 0.0562357613	 0.087787
O	-1.1131153231	-2.5373132023	 1.4414803741	-0.302494
C	-0.8451308582	-1.1456863345	 1.684987747	 0.087144
C	 0.6008055597	-0.8434488236	 1.1603986914	-0.11962
C	-1.2634040931	-0.7243579966	 0.2516152612	-0.134682
H	 1.055575591	 1.9806662603	-0.002924114	 0.115736
H	-0.471650852	 1.9570577674	-0.8961973867	 0.117635
H	-0.4830262624	 1.9614386772	 0.8713807498	 0.117028
H	 0.4423896054	-0.9374468921	-2.0305757807	 0.088035
H	 1.897015173	-0.443572642	-1.1166908639	 0.097897
H	 1.3706907795	-2.7734582563	 0.0602856617	 0.070758
H	-1.255566292	-2.9128475872	-0.6598400904	 0.079045
H	-1.211262523	-0.7643217831	 2.6371261144	 0.079632
H	 1.4661322805	-0.6155851866	 1.779011273	 0.066486
H	-2.2575406029	-0.3963489541	-0.0467895095	 0.069794
221.476	238.6119	259.5599	376.2755	475.102	529.5139	567.0158	697.9718	742.8481	800.4003	825.4933	844.0133	852.0586	872.2409	884.2205	906.4321	917.0368	939.0108	950.821	970.6368	1008.887	1039.1685	1068.0966	1089.3229	1124.5168	1135.7636	1150.8573	1176.3939	1199.9905	1213.2195	1223.8181	1230.9542	1249.5849	1285.088	1293.695	1326.1281	1349.5574	1415.4141	1489.9334	1493.7467	1498.3598	3019.5437	3027.9118	3081.5741	3085.5571	3089.8084	3121.417	3124.7173	3130.1538	3136.6569	3145.1852
CC12CC3C4OC(C13)C24	C[C@@]12C[C@@H]3[C@H]4O[C@@H]([C@H]13)[C@@H]24	
InChI=1S/C8H10O/c1-8-2-3-4(8)7-5(8)6(3)9-7/h3-7H,2H2,1H3	InChI=1S/C8H10O/c1-8-2-3-4(8)7-5(8)6(3)9-7/h3-7H,2H2,1H3/t3-,4+,5-,6+,7-,8+/m0/s1
