16
gdb 112311	3.03355	1.41846	1.06756	3.488	67.15	-0.2721	0.0003	0.2724	1113.11	0.124008	-475.002685	-474.994722	-474.993778	-475.035661	29.076	
C	 0.033573172	 1.3009495885	-0.2034963185	-0.243343
O	-0.0339893356	-0.1177931858	-0.1481585956	-0.22699
C	-1.2844548505	-0.614120522	 0.1296498233	 0.212951
O	-2.2106177806	-0.3488724513	-0.9572135299	-0.278383
C	-2.9038888095	-1.4741867731	-1.316322644	 0.434002
N	-3.9127625455	-1.5109939625	-2.0708341406	-0.540491
C	-2.2816485611	-2.6536814259	-0.6442549787	-0.056998
O	-0.8812356493	-2.7567861458	-0.9576247876	-0.227243
C	-1.255470643	-2.1263405725	 0.2589558824	-0.022424
H	 1.0850528163	 1.5586746641	-0.338894807	 0.139172
H	-0.5505032717	 1.6934319972	-1.0427027542	 0.137936
H	-0.3320302869	 1.7514341849	 0.7307684601	 0.112097
H	-1.7140276028	-0.1397037291	 1.0276139017	 0.081017
H	-4.1656750058	-0.5722477676	-2.3854037234	 0.228069
H	-2.8320782113	-3.576998019	-0.5133393256	 0.129362
H	-0.9397272748	-2.5970108401	 1.1841890177	 0.121264
94.5665	113.6294	156.0292	179.0468	255.3588	352.3462	404.3843	507.7001	528.155	630.6807	716.2848	811.1002	840.6521	879.7573	893.2641	915.5784	949.0078	971.5632	1032.307	1053.1008	1080.868	1109.6183	1168.3554	1179.0396	1235.4315	1242.2751	1275.0141	1330.1288	1385.2517	1406.9811	1423.1371	1481.7279	1486.2377	1509.0029	1788.1444	2971.3676	3000.727	3079.3192	3139.6472	3175.9889	3208.3777	3472.054
COC1OC(=N)C2OC12	CO[C@H]1O[C]([NH])[C@H]2O[C@@H]12	
InChI=1S/C5H7NO3/c1-7-5-3-2(8-3)4(6)9-5/h2-3,5-6H,1H3	InChI=1S/C5H7NO3/c1-7-5-3-2(8-3)4(6)9-5/h2-3,5-6H,1H3/t2-,3+,5-/m0/s1
