20
gdb 113468	2.83627	1.30482	1.11934	2.0118	80.03	-0.2203	0.0815	0.3017	1174.8012	0.170634	-403.065597	-403.057076	-403.056132	-403.098788	32.695	
C	-0.0774025805	 0.9934003042	 0.6168163035	-0.241989
O	-0.2132731421	-0.0036053908	-0.3813403372	-0.238872
C	-1.4123002887	-0.7009526983	-0.2633119792	 0.065831
C	-1.4885616955	-2.039064112	-0.937924253	-0.416735
C	-1.4470482926	-1.9506459438	 0.5662915627	 0.381357
C	-0.3282312583	-2.5307643676	 1.4669881135	-0.303937
C	-1.4308233771	-2.940441538	 2.4570094232	-0.033782
N	-2.1462578348	-1.6970895691	 2.8397951924	-0.336091
C	-2.4934424402	-2.3938534828	 1.5689852509	-0.165923
H	 0.9255460365	 1.4151477985	 0.5164267493	 0.120641
H	-0.816720765	 1.7975681713	 0.4798143988	 0.104013
H	-0.2069384393	 0.5778618052	 1.6247275791	 0.128986
H	-2.3050935589	-0.0716461244	-0.2704136799	 0.078099
H	-2.416739716	-2.3144926761	-1.4288769855	 0.111135
H	-0.5889831729	-2.3878865154	-1.4352317167	 0.122861
H	 0.170059629	-3.3889183031	 1.0083937871	 0.105405
H	 0.4191687065	-1.8320721015	 1.8498826225	 0.110847
H	-1.4446083232	-3.8084262747	 3.1042312543	 0.092765
H	-2.8532905594	-1.9657318732	 3.525348041	 0.225058
H	-3.5012151874	-2.7434603887	 1.3790962732	 0.090331
89.7666	132.5342	158.4945	185.0228	218.2858	321.7071	379.6226	447.7508	469.5881	531.7145	607.9506	763.7925	810.3586	812.4335	835.4017	886.7072	889.774	926.6511	962.6036	982.7837	1022.3371	1044.5514	1058.5109	1070.7367	1106.2832	1115.793	1125.4343	1157.0781	1176.7435	1186.8116	1193.3052	1226.7683	1248.5345	1292.3846	1311.1516	1332.8808	1376.7709	1420.0758	1469.3368	1475.7132	1484.806	1498.9284	1516.707	2984.857	3046.8094	3062.8989	3074.9956	3117.5423	3119.1243	3122.8528	3180.9515	3195.6941	3211.2175	3458.2832
COC1CC11CC2NC12	CO[C@H]1C[C@]21C[C@H]1N[C@@H]21	
InChI=1S/C7H11NO/c1-9-5-3-7(5)2-4-6(7)8-4/h4-6,8H,2-3H2,1H3	InChI=1S/C7H11NO/c1-9-5-3-7(5)2-4-6(7)8-4/h4-6,8H,2-3H2,1H3/t4-,5+,6-,7+/m1/s1
