22
gdb 89015	3.90275	0.6817	0.62117	3.3598	83.59	-0.2421	0.0362	0.2783	1841.2937	0.192868	-404.379603	-404.368884	-404.36794	-404.417071	38.208	
C	 0.0126122492	 1.5312459284	-0.2327459342	-0.404851
C	 0.0455261725	 0.0315385355	-0.0298569388	-0.005508
C	 1.3500744751	-0.730923032	-0.0361836008	-0.293688
C	 0.5456979167	-0.6187661558	 1.2408776265	 0.005306
C	 1.0696407842	 0.1714522992	 2.4214032153	-0.202391
C	 2.0049250279	-0.6590113352	 3.3079091493	-0.303584
C	 2.6669833149	 0.1806875447	 4.3984121803	 0.404994
N	 3.0199360634	-0.5109794405	 5.5237045539	-0.522522
O	 2.8755888807	 1.3729609002	 4.2808728554	-0.359242
H	 0.8824043242	 2.0240999866	 0.2098942292	 0.122654
H	 0.0066357473	 1.7760733	-1.3007302501	 0.114127
H	-0.8834070259	 1.9764950071	 0.2145129539	 0.115437
H	-0.7902312536	-0.4846521279	-0.4967412609	 0.078814
H	 1.4032663542	-1.6853815134	-0.5489393246	 0.103708
H	 2.2629069458	-0.1445350678	-0.0973878444	 0.108234
H	 0.0081729948	-1.5210403148	 1.5276985241	 0.072575
H	 1.6199091982	 1.0571178394	 2.0949147127	 0.125337
H	 0.233880442	 0.5415566016	 3.0289361155	 0.100856
H	 1.473428456	-1.5101406535	 3.7510968286	 0.096502
H	 2.8081324869	-1.0858045532	 2.6916183403	 0.129736
H	 2.9324983255	-1.5098915703	 5.5858998031	 0.255401
H	 3.5574133	-0.0292878584	 6.2260168758	 0.258107
24.9852	58.8635	89.0719	102.0207	168.9715	187.0501	223.5496	248.1293	333.9477	402.2291	428.8341	504.5708	537.3515	608.8294	668.3488	753.5878	786.4884	817.1281	853.3477	893.041	905.2904	945.0088	998.096	1053.3554	1064.6868	1077.0376	1086.6841	1112.8436	1146.4051	1153.764	1199.9292	1217.2642	1247.2107	1253.9865	1309.9525	1345.1517	1389.9306	1406.358	1418.7781	1430.6178	1464.2066	1485.6455	1493.9372	1498.2505	1506.7473	1616.6808	1796.0858	3018.2315	3028.9285	3031.9529	3057.3975	3085.8122	3098.8885	3110.0023	3117.618	3120.4409	3133.9228	3204.2971	3600.1157	3737.2671
CC1CC1CCC(N)=O	C[C@H]1C[C@H]1CCC(=O)N	
InChI=1S/C7H13NO/c1-5-4-6(5)2-3-7(8)9/h5-6H,2-4H2,1H3,(H2,8,9)	InChI=1S/C7H13NO/c1-5-4-6(5)2-3-7(8)9/h5-6H,2-4H2,1H3,(H2,8,9)/t5-,6+/m0/s1
