15
gdb 94508	3.8665	0.78785	0.69814	2.7982	74.08	-0.271	-0.0676	0.2034	1548.7672	0.109994	-457.704255	-457.695021	-457.694077	-457.740155	30.953	
O	 0.2187402196	 1.385351657	-0.0140898801	-0.413035
C	 0.1307055351	 0.0001114099	 0.138461784	 0.073582
C	-0.0142871886	-0.4019702257	 1.6124484196	-0.082669
O	-1.3186748013	-0.9857542104	 1.3869992154	-0.272224
C	-1.2887317697	-0.659842499	-0.01926938	-0.127852
C	-2.3524810385	 0.2144782107	-0.4664493826	 0.126029
C	-3.2135783683	 0.9515790263	-0.8866071585	 0.055999
C	-4.2584557877	 1.8283319634	-1.3473103189	 0.021348
O	-4.2582365059	 2.3827712838	-2.4226887255	-0.230394
H	 0.1272622217	 1.6059709612	-0.9476569493	 0.296726
H	 0.9090573319	-0.5319596453	-0.421445804	 0.091112
H	 0.7038855518	-1.1385571208	 1.987152026	 0.112312
H	-0.0573301075	 0.4600502314	 2.2861919627	 0.127761
H	-1.2848092936	-1.5713177631	-0.6331194837	 0.114063
H	-5.0866890791	 1.9626344505	-0.622886545	 0.107243
50.1946	52.8775	77.4978	116.5788	196.8964	226.9454	284.5926	378.8865	417.7512	462.6793	550.0928	659.9786	788.6604	810.1366	896.2498	932.3	986.3962	1020.4762	1022.1685	1040.3428	1141.1499	1164.1717	1173.3249	1232.7774	1234.4773	1310.9736	1341.1779	1347.5369	1419.4687	1438.5546	1513.1554	1766.0789	2316.3342	2926.8406	3007.7056	3030.7335	3041.4932	3094.7304	3809.4291
OC1COC1C#CC=O	O[C@H]1CO[C@H]1C#CC=O	
InChI=1S/C6H6O3/c7-3-1-2-6-5(8)4-9-6/h3,5-6,8H,4H2	InChI=1S/C6H6O3/c7-3-1-2-6-5(8)4-9-6/h3,5-6,8H,4H2/t5-,6-/m0/s1
