13
gdb 35147	4.95097	0.99629	0.8967	3.2597	68.65	-0.3025	-0.0428	0.2597	1211.5256	0.089445	-415.618315	-415.610578	-415.609634	-415.651547	27.323	
N	 0.0979596502	-1.1991161666	 0.3921668582	-0.306043
C	 0.0675607493	-0.0727225839	 0.1394030697	 0.277027
C	 0.0524650534	 1.3618148142	-0.2103584177	-0.062147
O	-0.7682787087	 2.0825552866	 0.7091039708	-0.254619
C	-0.0026212997	 3.0955722982	 1.3618252899	-0.062282
C	 1.3915238408	 2.9711625943	 0.7905451717	-0.086978
C	 1.4215107499	 1.9938119762	-0.1020930269	-0.087
C	-0.5963236495	 4.4235264328	 1.1077156724	 0.27707
N	-1.0391954792	 5.4740805229	 0.9239182898	-0.306043
H	-0.3675573882	 1.4544716886	-1.2222483863	 0.154236
H	-0.0223600024	 2.9228814418	 2.4474995086	 0.154269
H	 2.2031211698	 3.6182779271	 1.0922634001	 0.151251
H	 2.2672365044	 1.6513117579	-0.6816895503	 0.151258
44.8357	108.8456	169.9537	206.4397	283.8884	384.903	476.8553	519.2723	558.3226	587.8137	731.2009	776.4253	827.4521	906.4126	918.6813	956.9322	969.9007	1001.9402	1052.3776	1102.8015	1134.3826	1264.1656	1309.2985	1325.1386	1344.5392	1365.8445	1696.897	2362.9848	2363.6454	3010.4053	3010.6245	3233.0403	3255.614
N#CC1OC(C=C1)C#N	N#C[C@H]1O[C@@H](C=C1)C#N	
InChI=1S/C6H4N2O/c7-3-5-1-2-6(4-8)9-5/h1-2,5-6H	InChI=1S/C6H4N2O/c7-3-5-1-2-6(4-8)9-5/h1-2,5-6H/t5-,6-/m0/s1
