17
gdb 8656	2.47738	1.70451	1.40156	5.2795	68.86	-0.273	-0.0431	0.2299	988.6596	0.139318	-363.890808	-363.881467	-363.880523	-363.924904	32.523	
C	-0.1004513235	 1.5339358987	 0.1103481967	-0.405523
C	-0.0008679701	 0.0141045205	-0.0406538161	-0.201018
C	 0.7427500898	-0.4726921039	-1.3235373973	-0.038824
C	 2.2142103714	 0.0059210665	-1.3605721048	-0.426301
C	 0.7535120293	-2.0076668863	-1.2697532369	 0.162814
O	 0.2083826812	-2.7438547751	-2.0413040509	-0.228444
C	 0.0328107363	-0.0113274493	-2.520954578	 0.307212
N	-0.5200271743	 0.3951820351	-3.4500863606	-0.337912
H	 0.881295248	 2.0013385613	 0.2269857977	 0.125189
H	-0.594076276	 1.9851180518	-0.7551548287	 0.150982
H	-0.6886393789	 1.7793223727	 0.999091346	 0.128573
H	 0.5217460149	-0.4157114668	 0.8226890368	 0.10985
H	-1.0069347947	-0.4190340273	-0.0498250989	 0.131732
H	 2.7419675751	-0.3476804331	-0.4692775247	 0.129668
H	 2.7260775977	-0.3792099754	-2.2460139566	 0.150301
H	 2.2676975538	 1.0954257131	-1.3845867419	 0.15131
H	 1.3360618598	-2.3910135624	-0.4008510118	 0.090393
65.0681	94.9373	151.9285	167.8689	208.9977	238.5786	265.5539	328.7096	336.6311	390.7454	450.9259	578.6723	653.5602	722.8102	793.7859	879.7522	917.3844	987.8648	1013.465	1023.518	1083.3707	1158.0914	1180.3044	1245.4283	1326.5109	1365.1096	1401.4344	1418.5775	1423.6898	1479.6517	1489.9411	1497.2976	1506.2844	1510.8041	1848.1121	2362.7538	2873.9187	3032.7023	3046.847	3049.241	3075.8753	3117.0114	3123.1288	3123.76	3142.7769
CCC(C)(C=O)C#N	CC[C@@](C)(C=O)C#N	
InChI=1S/C6H9NO/c1-3-6(2,4-7)5-8/h5H,3H2,1-2H3	InChI=1S/C6H9NO/c1-3-6(2,4-7)5-8/h5H,3H2,1-2H3/t6-/m1/s1
