16
gdb 50878	6.95713	0.62349	0.57624	4.1648	72.51	-0.2691	-0.0361	0.233	1779.8047	0.124181	-434.11763	-434.108311	-434.107366	-434.153191	31.919	
N	-0.1159686279	 1.4738893897	 0.05052627	-0.499336
C	-0.0397229316	 0.2099993897	 0.0539177006	 0.394797
C	-1.2786392604	-0.6556415788	 0.1580278548	-0.296968
C	-2.5599500353	 0.1855822677	 0.2580849139	-0.328654
C	-3.7499826655	-0.6552516588	 0.3569727244	 0.252466
N	-4.6806749885	-1.3357519889	 0.4344510249	-0.304311
N	 1.1452721329	-0.5567854503	-0.0342933175	-0.347358
C	 2.4286898295	-0.0741252094	-0.139791571	 0.169806
O	 2.7415304945	 1.0933500225	-0.1736454718	-0.292849
H	 0.8078443498	 1.9000709217	-0.025973812	 0.258715
H	-1.3331560755	-1.3185071863	-0.7148709633	 0.141415
H	-1.1917210298	-1.3113734339	 1.0336639754	 0.141115
H	-2.5051719385	 0.8474818549	 1.126968213	 0.17411
H	-2.6449951018	 0.8411557116	-0.6131213371	 0.174367
H	 1.0472632072	-1.5615218164	-0.0186781791	 0.261067
H	 3.1670321711	-0.8968470648	-0.1920502553	 0.101618
48.2955	57.9083	104.0855	113.5298	203.0416	256.24	305.6169	339.7857	394.5295	534.1116	535.7389	558.1166	600.3474	785.3711	815.1533	918.6748	968.1842	972.4116	1026.0097	1026.8559	1052.9163	1073.192	1184.5229	1186.9787	1259.2196	1307.8453	1333.5401	1407.2091	1439.7264	1455.809	1475.0132	1510.9175	1739.5946	1817.3097	2364.174	2955.675	3028.9567	3061.7319	3075.6912	3114.4594	3491.0108	3609.6486
N=C(CCC#N)NC=O	N=C(CCC#N)NC=O	
InChI=1S/C5H7N3O/c6-3-1-2-5(7)8-4-9/h4H,1-2H2,(H2,7,8,9)	InChI=1S/C5H7N3O/c6-3-1-2-5(7)8-4-9/h4H,1-2H2,(H2,7,8,9)
