15
gdb 46087	4.51953	1.0375	0.89	1.7739	72.73	-0.2405	-0.0761	0.1644	1226.0734	0.114099	-416.83129	-416.823539	-416.822595	-416.864061	28.686	
O	 0.0053835813	-0.0529954967	 0.1684289414	-0.312763
C	-0.0095125316	 1.1466365761	-0.0058338822	 0.369027
C	-1.3106059093	 1.9467754933	-0.0902861716	-0.289285
N	-1.223516811	 3.1657189993	-0.8983846565	-0.306025
C	-0.1084763271	 4.0165541198	-0.4777041528	-0.144966
C	 1.2047102021	 3.2750917639	-0.271455797	-0.042549
C	 1.232612649	 1.9505265401	-0.0933366313	-0.174669
C	 0.0686358668	 5.1141679073	-1.4401615495	 0.261154
N	 0.2327799698	 5.9665249508	-2.2015706298	-0.303499
H	-2.1007640468	 1.3023723366	-0.4818392835	 0.143919
H	-1.601468411	 2.2238364896	 0.9336946083	 0.138689
H	-1.0879905679	 2.9146145072	-1.8736193975	 0.240651
H	-0.3879400978	 4.4828609972	 0.4823685672	 0.154944
H	 2.1141793474	 3.8700649464	-0.2585692551	 0.138721
H	 2.1642694661	 1.410102659	 0.0423440199	 0.126651
57.1861	149.6041	169.7218	270.0873	325.3421	408.7828	428.9701	469.2398	536.427	587.7181	619.4247	725.4536	743.7865	778.703	866.5698	914.0554	981.2899	1022.9973	1039.6315	1077.5232	1127.3365	1179.0853	1228.5815	1267.0901	1285.3141	1331.1718	1337.5249	1393.7131	1452.5038	1500.7499	1680.3867	1791.5403	2369.2554	2970.7728	3012.6481	3114.1804	3165.3371	3192.7606	3511.1008
O=C1CNC(C=C1)C#N	O=C1CN[C@@H](C=C1)C#N	
InChI=1S/C6H6N2O/c7-3-5-1-2-6(9)4-8-5/h1-2,5,8H,4H2	InChI=1S/C6H6N2O/c7-3-5-1-2-6(9)4-8-5/h1-2,5,8H,4H2/t5-/m0/s1
