17
gdb 35610	2.26484	1.76427	1.10731	1.8693	79.78	-0.2452	0.0046	0.2497	1089.8895	0.135187	-384.645123	-384.637092	-384.636148	-384.677898	31.083	
C	-0.314812224	-1.0893365612	-0.6171010454	-0.462113
C	-0.1558041	 0.0502647424	-0.2676527622	 0.321069
C	 0.0303658323	 1.4252772423	 0.1661453569	-0.258882
C	-0.3689012551	 1.6897876901	 1.6534386187	-0.283842
C	 0.6762641449	 2.6682727381	 2.1310774607	-0.085648
C	 1.6792381473	 2.809076401	 1.266178037	-0.14167
C	 1.4767115923	 1.9709623296	 0.0572175743	 0.416659
C	 2.563317437	 1.3175296395	-0.6858301046	-0.245703
O	 1.8971236592	 2.4685719585	-1.2161003165	-0.283489
H	-0.4594776861	-2.0940444011	-0.9287539344	 0.196826
H	-0.5737786569	 2.0799582129	-0.4740424307	 0.128173
H	-1.3898758371	 2.0757679165	 1.7393319179	 0.118354
H	-0.3346640944	 0.7608990457	 2.2348295669	 0.127224
H	 0.6066109877	 3.1610617875	 3.094212432	 0.105503
H	 2.5583500321	 3.4302909685	 1.3874374248	 0.108755
H	 3.5973152973	 1.4748185704	-0.3796445441	 0.109275
H	 2.3599696834	 0.3801320694	-1.1995708713	 0.129508
56.2267	142.712	198.1028	270.1714	332.1193	345.2703	463.2709	485.5999	544.0363	561.4881	618.7642	636.5244	702.2469	755.8502	784.1778	859.7175	880.8237	945.4125	961.4637	972.3316	1014.9576	1020.5187	1055.968	1121.1098	1130.3867	1162.7719	1171.5025	1228.9421	1262.2731	1300.9257	1340.6367	1347.1013	1417.6334	1488.3065	1523.5624	1683.2356	2235.3674	3031.8725	3038.3785	3075.1845	3082.2065	3176.638	3192.1491	3218.4705	3503.7233
C#CC1CC=CC11CO1	C#C[C@H]1CC=C[C@]21CO2	
InChI=1S/C8H8O/c1-2-7-4-3-5-8(7)6-9-8/h1,3,5,7H,4,6H2	InChI=1S/C8H8O/c1-2-7-4-3-5-8(7)6-9-8/h1,3,5,7H,4,6H2/t7-,8+/m0/s1
