17
gdb 13097	4.10368	1.30239	1.11981	4.3551	66.73	-0.2438	0.0343	0.2781	1071.1928	0.142338	-401.011096	-401.002909	-401.001965	-401.044265	29.654	
O	-0.1613261352	 1.4111231137	-0.0265850683	-0.447709
C	-0.0280368345	-0.0023061649	 0.0185804426	 0.098043
C	 0.290194362	-0.53714707	 1.4408124296	-0.25274
C	-1.237356596	-0.6374006353	 1.7093593503	-0.239204
C	-1.4532998472	-0.6000488788	 0.1679048117	 0.065391
N	-2.5320787423	 0.1639154586	-0.3932880847	-0.282426
C	-3.5478494701	-0.3868389817	-1.1097509161	 0.149877
O	-3.7107715626	-1.5743595864	-1.2989077565	-0.327725
H	 0.7072495298	 1.8028901128	 0.1053740789	 0.290014
H	 0.5864972018	-0.3641540288	-0.8154122359	 0.0699
H	 0.7756221947	-1.5163114936	 1.4059833916	 0.109818
H	 0.8747212233	 0.1263270442	 2.0828775914	 0.097253
H	-1.6104995112	-1.5126747992	 2.2439253057	 0.109608
H	-1.624533247	 0.2664507416	 2.184944906	 0.109099
H	-1.5125395002	-1.6071700681	-0.2465580807	 0.121272
H	-2.4429552014	 1.167967729	-0.356479063	 0.257803
H	-4.235088344	 0.3869643969	-1.5062692525	 0.071727
51.192	115.913	180.4026	208.4363	249.033	275.7093	394.412	428.5187	536.1898	584.6221	666.9762	735.7852	827.0846	884.3328	896.5601	931.9401	956.9461	1022.4063	1034.2075	1085.1417	1110.1421	1142.9423	1188.3903	1204.3864	1244.4779	1256.1646	1260.0571	1282.7285	1325.1759	1358.0743	1410.72	1430.7009	1469.3341	1489.9708	1530.5454	1802.3758	2934.1781	3018.4315	3061.3445	3074.2123	3111.4918	3116.8238	3136.2735	3627.963	3826.385
OC1CCC1NC=O	O[C@H]1CC[C@H]1NC=O	
InChI=1S/C5H9NO2/c7-3-6-4-1-2-5(4)8/h3-5,8H,1-2H2,(H,6,7)	InChI=1S/C5H9NO2/c7-3-6-4-1-2-5(4)8/h3-5,8H,1-2H2,(H,6,7)/t4-,5+/m1/s1
