18
gdb 37669	3.02163	2.38166	2.04948	1.8032	75.35	-0.218	0.082	0.3	778.6865	0.152859	-364.774585	-364.769278	-364.768333	-364.803812	24.373	
C	-0.0082570554	 1.545639733	 0.083740047	-0.231903
C	 1.4550127491	 1.9290130745	-0.0326114173	-0.065809
C	 2.4459054667	 1.0488403469	 0.7000763231	-0.056814
C	 2.2083951236	 0.8432435472	-0.7829886485	-0.077571
C	 1.3142313342	-0.4051108722	-0.8288038807	-0.100564
C	 1.6497276244	-1.2679343322	 0.4212733904	-0.047375
C	 1.9571067371	-0.203422973	 1.4003332986	-0.052268
N	 0.5383433668	-0.6513826447	 1.2267880187	-0.164511
C	 0.0421528135	 0.0280824892	-0.0229884601	 0.016818
H	-0.4709450259	 1.8581603171	 1.0269632753	 0.109251
H	-0.583455689	 1.9833822751	-0.7404338952	 0.097775
H	 1.7234343206	 2.971210032	-0.1717948021	 0.080237
H	 3.3608688467	 1.4997820056	 1.067068715	 0.083525
H	 2.954209514	 1.0556721267	-1.5394218551	 0.082521
H	 1.1887015349	-0.8796288418	-1.7999090394	 0.068038
H	 1.9038574774	-2.3203473783	 0.4843834315	 0.089544
H	 2.342237753	-0.4423003713	 2.3851606405	 0.091385
H	-0.8919958517	-0.4471040236	-0.3258438818	 0.077721
320.6888	427.7311	521.9449	629.8726	638.7898	691.7092	711.1499	761.7679	775.83	792.2675	809.9243	851.4522	864.5629	902.1119	918.5149	932.8396	972.0562	979.8388	997.1774	1029.0237	1039.7786	1059.2958	1060.6839	1072.897	1096.5766	1123.1379	1180.7995	1193.6966	1204.3005	1245.7113	1253.6165	1265.3187	1294.5976	1316.5612	1335.7117	1358.1235	1372.3518	1411.9973	1480.4027	3031.7758	3074.5142	3097.7097	3134.3421	3159.5979	3166.1269	3171.0892	3179.8673	3187.3132
C1C2C3C2C2C4C3N4C12	C1[C@H]2[C@@H]3[C@H]2[C@H]2[C@H]4[C@@H]3N4[C@@H]12	
InChI=1S/C8H9N/c1-2-4-5(2)7-8-6(4)3(1)9(7)8/h2-8H,1H2	InChI=1S/C8H9N/c1-2-4-5(2)7-8-6(4)3(1)9(7)8/h2-8H,1H2/t2-,3+,4+,5-,6+,7-,8+,9?/m1/s1
