21
gdb 120201	3.59386	0.89341	0.80747	2.2025	80.26	-0.2527	0.0721	0.3248	1496.4539	0.182049	-424.152464	-424.143349	-424.142404	-424.186896	34.092	
C	-0.1325156956	 1.3491485576	-0.0366310365	-0.223222
O	 0.0532549816	-0.0450924028	-0.0300452555	-0.234071
C	 0.5820429373	-0.524618338	 1.1912998602	-0.123234
C	 0.6816149849	-2.0339532176	 1.0808639836	 0.031674
C	 1.8446226957	-2.7322249555	 0.2974410764	-0.10038
C	 2.7742598814	-2.4159103989	 1.5032563991	-0.235336
C	 1.4393994708	-2.8920654305	 2.145113183	-0.123358
C	 1.4806893767	-4.038786879	 1.0767392543	 0.194445
O	 0.3632599645	-4.8140773199	 0.761698372	-0.450297
H	 0.8158282517	 1.8905262703	 0.1112315397	 0.102699
H	-0.5444595743	 1.621016886	-1.011640468	 0.126922
H	-0.8347608795	 1.6726653899	 0.7486599775	 0.102272
H	 1.5501248722	-0.0448464484	 1.3982717101	 0.08871
H	-0.0903982832	-0.2599595651	 2.0270277673	 0.084044
H	-0.3234077813	-2.3902567695	 0.8245707259	 0.047734
H	 2.0755590688	-2.6316048152	-0.7633808413	 0.077679
H	 3.6381412209	-3.0735329732	 1.6352315807	 0.093519
H	 3.0565833684	-1.3757173993	 1.6554079986	 0.100857
H	 1.2082770306	-2.9817619649	 3.2080412595	 0.07038
H	 2.3047867171	-4.7453277507	 1.2025636876	 0.081924
H	-0.3861135586	-4.2403338054	 0.573315386	 0.287041
63.9768	86.582	117.5423	225.0002	228.7207	259.2275	315.7271	366.9402	391.906	459.8239	551.4592	648.3377	756.0652	789.108	851.8571	874.4529	887.323	900.0874	988.5739	1011.6481	1013.9335	1051.7458	1068.462	1111.0829	1116.2255	1123.1872	1159.9141	1173.6851	1183.0014	1184.7854	1193.2029	1224.5097	1237.9027	1245.1871	1268.4889	1275.466	1289.354	1393.1214	1448.9401	1461.5536	1481.7979	1485.8007	1502.0527	1520.4695	1534.8016	2944.1566	2966.9266	2998.8237	3008.7446	3027.8314	3064.9662	3085.1212	3099.2597	3112.4434	3114.1515	3147.435	3817.4217
COCC1C2CC1C2O	COC[C@H]1[C@H]2C[C@@H]1[C@H]2O	
InChI=1S/C7H12O2/c1-9-3-6-4-2-5(6)7(4)8/h4-8H,2-3H2,1H3	InChI=1S/C7H12O2/c1-9-3-6-4-2-5(6)7(4)8/h4-8H,2-3H2,1H3/t4-,5+,6+,7+
