20
gdb 61075	2.87182	1.1402	1.00851	4.602	75.88	-0.2351	0.0267	0.2618	1264.2102	0.171866	-440.306738	-440.297569	-440.296625	-440.342	32.647	
C	 0.2352908312	 1.4551805627	-0.0557764923	-0.351639
N	-0.1157741036	 0.0471294564	 0.0381980896	-0.052519
C	-0.3137669504	-0.5122905346	 1.2705067028	 0.130121
O	-0.3014963964	 0.0950597825	 2.3235811467	-0.351023
C	-0.0546475571	-0.7607361232	-1.1796694319	 0.01582
C	 1.2392065103	-1.6286840946	-1.309285319	-0.25071
C	 0.7133473017	-3.0826327534	-1.3203401435	-0.076081
O	-0.605203371	-3.0273151863	-0.7886433366	-0.23223
C	-1.1672919187	-1.8269511679	-1.2895959302	-0.11688
H	 1.2679275431	 1.5893087669	-0.4028821564	 0.12212
H	-0.4335639894	 1.9757699861	-0.7506920607	 0.122434
H	 0.1358823737	 1.8884365278	 0.9391583582	 0.170327
H	-0.4942102281	-1.5995563514	 1.2095213285	 0.103808
H	-0.1357120616	-0.0553276243	-2.0091084021	 0.091688
H	 1.8024643841	-1.3965658257	-2.2159469889	 0.110886
H	 1.8910570246	-1.4415485528	-0.4534984424	 0.125491
H	 0.6887068388	-3.4792242602	-2.3476412432	 0.0961
H	 1.2957455608	-3.7673618079	-0.7001646947	 0.11938
H	-2.0599840984	-1.5864946649	-0.7095646266	 0.126405
H	-1.4529918136	-1.9503806252	-2.3473724973	 0.096502
36.907	64.7084	108.4869	155.4149	206.0625	278.1334	330.8441	350.0162	396.1869	440.8101	610.1455	681.3783	751.1427	832.4493	852.5021	905.0059	945.4851	952.4583	967.8736	1058.4424	1066.7683	1090.7816	1101.9394	1131.1014	1158.2014	1209.7143	1228.0761	1243.4726	1250.5458	1290.9791	1308.1157	1332.7972	1354.9459	1399.178	1428.454	1454.6468	1464.2526	1488.2861	1500.549	1502.3418	1517.674	1522.9027	1783.6084	2967.757	2980.6999	2992.3777	3014.8353	3067.2835	3072.2268	3087.0663	3103.1845	3117.3038	3124.6016	3159.2564
CN(C=O)C1CCOC1	CN(C=O)[C@H]1CCOC1	
InChI=1S/C6H11NO2/c1-7(5-8)6-2-3-9-4-6/h5-6H,2-4H2,1H3	InChI=1S/C6H11NO2/c1-7(5-8)6-2-3-9-4-6/h5-6H,2-4H2,1H3/t6-/m0/s1
