14
gdb 46438	4.17168	1.20144	1.08463	3.2017	71.09	-0.2658	-0.0127	0.2531	1089.6508	0.100295	-436.639665	-436.632148	-436.631203	-436.671714	28.512	
N	-0.0589834772	 1.2406612256	 0.3489155995	-0.544078
C	-0.0136522189	 0.0251627202	 0.0187622828	 0.456402
O	 1.1211267975	-0.6895552613	-0.2577917098	-0.254208
C	 0.8142961615	-1.9481964564	-0.8767508721	-0.164993
C	-0.6900816291	-2.1300594146	-0.7263157846	 0.250523
O	-1.0777624962	-2.06062753	 0.6531154207	-0.277682
C	-1.1956212714	-0.8706052749	-0.1400068279	-0.155572
C	-1.4128763604	-3.0004358263	-1.6020120428	 0.179652
C	-1.9775043248	-3.7483268629	-2.3538857004	-0.335369
H	 0.8773539591	 1.6496677595	 0.3609431511	 0.230651
H	 1.1017013844	-1.9159555172	-1.9329205124	 0.132267
H	 1.3769656569	-2.7340669209	-0.3660174906	 0.141156
H	-2.1900499319	-0.4678868719	-0.2870426272	 0.138172
H	-2.4897538595	-4.4067802888	-3.0119870362	 0.203078
108.2756	144.9495	172.8847	274.4407	381.6857	406.0696	485.2939	524.0977	562.4372	633.8449	654.2784	687.6518	702.9983	776.9293	851.9419	894.9792	908.406	956.1146	1012.9599	1044.0139	1072.1987	1102.5186	1201.8448	1225.9872	1248.9622	1297.6585	1384.3445	1429.8053	1502.0524	1786.4561	2247.8608	3051.4253	3108.0173	3209.4561	3473.0764	3498.3631
N=C1OCC2(OC12)C#C	[NH][C]1OC[C@]2(O[C@@H]12)C#C	
InChI=1S/C6H5NO2/c1-2-6-3-8-5(7)4(6)9-6/h1,4,7H,3H2	InChI=1S/C6H5NO2/c1-2-6-3-8-5(7)4(6)9-6/h1,4,7H,3H2/t4-,6+/m0/s1
