17
gdb 46606	3.17107	1.5285	1.05543	4.6848	79.05	-0.2013	-0.0016	0.1997	1098.5593	0.13956	-418.032297	-418.024979	-418.024035	-418.064108	28.316	
N	-0.0157768975	 1.3140717549	 0.1246871032	-0.567254
C	-0.0668079437	 0.0492471135	 0.0691134024	 0.306846
O	 1.0673919267	-0.7719516921	 0.0620750593	-0.268658
C	 0.6929469264	-2.152534839	-0.0402359242	-0.194945
C	-0.7999828532	-2.0976138951	-0.0532307545	 0.279625
C	-1.2154515357	-0.8260709857	 0.0161491731	 0.173677
C	-2.7135120323	-0.7704699375	-0.0902491228	-0.356666
C	-3.0742141232	-2.2861662356	 0.0700442278	-0.170747
N	-1.8087512909	-3.0221194816	-0.2265456508	-0.396073
H	 0.9540119457	 1.6299662044	 0.159085178	 0.216369
H	 1.1131977929	-2.5815112542	-0.9595235888	 0.132687
H	 1.1098511939	-2.7040278639	 0.813118999	 0.123329
H	-3.1987609819	-0.1539682893	 0.6709410388	 0.126446
H	-3.0337955835	-0.3869347703	-1.0666827715	 0.124424
H	-3.3976045659	-2.4924575605	 1.0985509585	 0.111477
H	-3.8681414319	-2.6086362436	-0.6075323165	 0.118843
H	-1.7085635658	-3.9241739844	 0.2190142789	 0.240621
128.4055	168.8146	209.4193	235.4754	283.1248	514.2134	538.3502	551.9873	603.1949	635.8755	708.4537	768.2072	783.1846	842.87	862.5121	924.8065	957.3528	1002.6707	1028.1722	1037.3008	1070.2892	1075.417	1184.0591	1188.9876	1202.1278	1240.3066	1285.1298	1289.2883	1328.8626	1377.563	1406.5346	1486.1225	1498.2876	1501.211	1522.6559	1703.589	1766.2781	3011.6292	3017.8625	3031.1464	3041.8477	3085.3518	3099.103	3484.9108	3576.8751
N=C1OCC2=C1CCN2	[NH]C1=C2[C](CO1)NCC2	
InChI=1S/C6H8N2O/c7-6-4-1-2-8-5(4)3-9-6/h7-8H,1-3H2	InChI=1S/C6H8N2O/c7-6-4-1-2-8-5(4)3-9-6/h7-8H,1-3H2
