19
gdb 117748	2.39977	1.10879	0.96599	2.3602	73.6	-0.247	-0.0598	0.1872	1330.2089	0.153788	-460.171201	-460.160523	-460.159579	-460.207441	36.895	
C	-0.0230678682	 1.633059054	-0.1474165079	-0.383745
C	 0.0714718764	 0.1325135333	 0.0662101711	-0.057191
O	 0.7579311832	-0.4144870413	-1.0604446543	-0.291625
C	 0.816831469	-1.8101263745	-1.1796495194	 0.178112
C	 1.3685661379	-2.5624229081	 0.0488029779	-0.451194
C	-0.5401976211	-2.4326498136	-1.567572197	 0.138628
O	-1.5607021136	-1.8113900303	-1.6828856251	-0.244152
C	 1.742958561	-2.0610905084	-2.3804258981	 0.129759
O	 2.1341598713	-3.1503195308	-2.7054118239	-0.254213
H	 0.9732865855	 2.0706626523	-0.2580359094	 0.124947
H	-0.5998704682	 1.8539245847	-1.0493986028	 0.135052
H	-0.5165981957	 2.105254331	 0.7071815053	 0.117559
H	 0.6281831193	-0.0879363566	 0.9885004955	 0.091893
H	-0.9275692551	-0.3067464946	 0.1539076244	 0.119055
H	 0.6590327105	-2.5578755761	 0.8800214356	 0.133128
H	 1.5820337058	-3.5966053923	-0.2298203322	 0.152524
H	 2.2994471904	-2.092584301	 0.377573433	 0.141068
H	-0.4867004261	-3.5297047611	-1.740126563	 0.107036
H	 1.9964371776	-1.1310009067	-2.9292744498	 0.11336
54.7147	88.2998	98.9325	131.8074	164.8103	226.3882	236.031	253.7184	282.1196	305.8262	339.6111	385.9159	428.2501	559.2361	677.0746	788.0508	827.6412	861.394	904.9958	944.715	966.5654	1021.7375	1082.4329	1130.3544	1148.4288	1180.5385	1200.42	1232.0991	1309.2052	1371.9134	1389.5163	1399.2648	1405.2319	1434.3559	1483.1075	1488.4509	1497.2879	1501.7067	1523.966	1813.1301	1847.9298	2899.9642	2932.7899	3000.1915	3046.2804	3050.8831	3072.2614	3120.5737	3127.1162	3127.5019	3140.4976
CCOC(C)(C=O)C=O	CCOC(C)(C=O)C=O	
InChI=1S/C6H10O3/c1-3-9-6(2,4-7)5-8/h4-5H,3H2,1-2H3	InChI=1S/C6H10O3/c1-3-9-6(2,4-7)5-8/h4-5H,3H2,1-2H3
