20
gdb 68232	3.07065	1.63213	1.38692	0.444	77.47	-0.2183	0.0745	0.2928	992.72	0.173256	-403.111242	-403.103972	-403.103028	-403.142252	30.879	
O	-0.0186480314	 1.4550108365	-0.0119488056	-0.482658
C	-0.0156033219	 0.052093775	 0.036740322	 0.407472
C	 0.2286148961	-0.6885482745	 1.388032431	-0.283757
C	-0.7502730313	-1.7626322091	 0.8159136249	-0.048502
C	-1.4066094672	-0.6081069399	 0.0073959278	-0.272352
C	 0.0834454847	-2.6871639099	-0.0542104735	 0.000027
C	-0.1254392782	-2.829970105	-1.5176516567	-0.25683
N	 0.9934834928	-2.0290958883	-1.0089856519	-0.096848
C	 0.8853511591	-0.5574715471	-1.0545952565	-0.224486
H	 0.894877231	 1.7624526507	-0.026667449	 0.276172
H	 1.2459368166	-1.0036793858	 1.6372341489	 0.095452
H	-0.2112409063	-0.1260708343	 2.2146847442	 0.102227
H	-1.3786520667	-2.3174540984	 1.5145293331	 0.070755
H	-2.1027779335	-0.0462698727	 0.6352528101	 0.108071
H	-1.8773902091	-0.8077509738	-0.9569937096	 0.095316
H	 0.5394244987	-3.5152468659	 0.4881647535	 0.088313
H	 0.1671492219	-3.7482994582	-2.0212605536	 0.110954
H	-0.9694191552	-2.3222384268	-1.9758646265	 0.112191
H	 0.5364155885	-0.2299262022	-2.0413269515	 0.107698
H	 1.9015863615	-0.1566598303	-0.9223479111	 0.090785
199.6053	252.6734	275.9332	322.3698	403.4356	416.302	442.6463	457.54	500.8963	586.687	655.3936	752.8037	791.8439	855.911	877.5303	893.1605	907.7031	932.5837	947.7001	989.02	1018.9399	1032.1127	1076.7363	1089.8298	1104.4781	1120.8653	1138.6992	1160.5591	1167.302	1190.5606	1231.8357	1236.7091	1258.9186	1273.4964	1311.5516	1346.5397	1356.0235	1389.9933	1408.3261	1474.8085	1492.2396	1505.7548	1524.0189	2988.2156	3052.6167	3054.5781	3066.5511	3089.6875	3100.7133	3106.8907	3119.2106	3122.0077	3184.0948	3794.1223
OC12CC(C1)C1CN1C2	O[C@@]12C[C@@H](C1)[C@H]1CN1C2	
InChI=1S/C7H11NO/c9-7-1-5(2-7)6-3-8(6)4-7/h5-6,9H,1-4H2	InChI=1S/C7H11NO/c9-7-1-5(2-7)6-3-8(6)4-7/h5-6,9H,1-4H2/t5-,6-,7-,8?/m1/s1
