17
gdb 26675	2.24874	1.62669	0.95472	1.3123	74.29	-0.1638	0.0499	0.2138	1197.2429	0.135118	-455.16271	-455.15284	-455.151896	-455.197168	35.567	
C	 0.1382341357	 1.4752789625	 0.0330366126	-0.497796
C	-0.0462853183	 0.0040891056	-0.0095688509	 0.280417
C	-1.124404452	-0.8198938994	-0.115696889	 0.056803
N	-2.4872016003	-0.524811573	-0.2796090546	-0.622765
C	-0.6114684361	-2.1664161864	-0.1074549811	 0.111496
O	-1.3541012589	-3.3281375389	-0.1052203728	-0.459755
C	 0.7411502022	-2.0683736347	-0.0008359755	 0.290796
N	 1.7536879887	-3.0209696143	-0.006668974	-0.602674
O	 1.1106325598	-0.7714112432	 0.0528943794	-0.220795
H	 0.6493484511	 1.8652808132	-0.8573969935	 0.130218
H	-0.8348311348	 1.9727120044	 0.0926564978	 0.116959
H	 0.7234507091	 1.7882351454	 0.9067828498	 0.128421
H	-2.726684734	 0.4119469459	 0.019871666	 0.239614
H	-3.0642612591	-1.1902022807	 0.2229225979	 0.244696
H	-1.7295040139	-3.4532889712	-0.9846859878	 0.298099
H	 1.3646116275	-3.9463177984	 0.1277131685	 0.255496
H	 2.4613246333	-2.8395212668	 0.6968293371	 0.250771
80.2899	130.3204	152.0177	185.0257	207.0722	225.9193	262.4513	282.7535	319.4982	350.9447	379.2392	546.3335	605.9259	612.9996	626.3398	677.7392	744.433	787.1861	801.9573	902.0534	966.4129	1059.9269	1079.3549	1145.5634	1190.4116	1231.412	1269.3336	1333.9269	1394.9652	1421.5429	1465.0659	1489.4653	1499.3692	1626.2814	1640.6751	1691.2448	1735.8521	3006.8717	3050.4879	3099.1511	3515.9454	3517.0505	3611.0884	3616.8967	3770.9816
CC1=C(N)C(O)=C(N)O1	Cc1c(N)c(O)c(N)o1	
InChI=1S/C5H8N2O2/c1-2-3(6)4(8)5(7)9-2/h8H,6-7H2,1H3	InChI=1S/C5H8N2O2/c1-2-3(6)4(8)5(7)9-2/h8H,6-7H2,1H3
