16
gdb 20862	3.13136	1.85347	1.27664	4.0912	66.03	-0.2889	-0.0329	0.256	963.5522	0.129871	-379.902313	-379.894315	-379.893371	-379.935245	28.243	
C	 0.0194851307	 1.563375857	-0.0712573669	-0.382182
C	-0.0140217195	 0.0409479287	 0.1488890833	-0.295191
C	-1.3895216371	-0.5373627379	 0.0261222371	 0.268865
N	-2.094263245	-0.8864537168	 1.068572265	-0.144319
O	-3.2854124182	-1.351050854	 0.5846992198	-0.158353
N	-3.3186144434	-1.2933031583	-0.7805712676	-0.136341
C	-2.169001956	-0.7966881545	-1.1503303803	 0.265393
C	-1.8184281842	-0.5875418821	-2.5862286865	-0.503878
H	 1.0416917637	 1.9397602343	 0.0262797119	 0.125091
H	-0.3438087492	 1.8350984315	-1.0672206064	 0.123317
H	-0.6060481874	 2.0745634767	 0.6657710202	 0.138543
H	 0.646982984	-0.4504325489	-0.5749810001	 0.115708
H	 0.3681574005	-0.1983627762	 1.1449529164	 0.136403
H	-1.6792389576	 0.4751280192	-2.8099869737	 0.146063
H	-0.8853807592	-1.1008503273	-2.8409596886	 0.14247
H	-2.6142276423	-0.9736644112	-3.2252589233	 0.158411
55.865	125.3536	159.5554	192.3109	259.977	273.0469	409.036	422.1546	629.9419	646.9041	692.9834	753.384	794.6518	921.1294	935.0823	979.171	1000.7727	1064.276	1069.8082	1082.695	1104.4915	1234.4911	1286.1704	1356.8811	1409.2398	1412.8683	1432.1671	1477.934	1483.1871	1485.3268	1498.2348	1502.9103	1525.9317	1627.4341	3039.8082	3042.6462	3044.2207	3093.2494	3098.48	3116.3556	3123.4258	3143.4447
CCC1=NON=C1C	CCc1nonc1C	
InChI=1S/C5H8N2O/c1-3-5-4(2)6-8-7-5/h3H2,1-2H3	InChI=1S/C5H8N2O/c1-3-5-4(2)6-8-7-5/h3H2,1-2H3
