14
gdb 46458	4.1555	1.19141	1.06568	3.9593	69.1	-0.247	-0.0073	0.2398	1094.2014	0.100478	-436.664833	-436.657164	-436.65622	-436.69702	29.	
O	 0.0018627722	-0.0518157315	 0.0271712675	-0.375557
C	-0.0028827352	 1.1574428997	 0.0252662197	 0.461658
N	-1.0935903235	 1.9797417451	 0.1382100632	-0.345379
C	-0.841918697	 3.4025425219	-0.0077651308	-0.244636
C	 0.6826355957	 3.4699053096	-0.1276984211	 0.262882
O	 1.3357276772	 2.9413412442	 1.0351500961	-0.277014
C	 1.1953997679	 2.0825013308	-0.1051048904	-0.19321
C	 1.3011985613	 4.570105659	-0.8039403326	 0.200646
C	 1.7838342339	 5.5110049811	-1.3743924572	-0.352042
H	-2.0017262177	 1.5987586319	 0.3490652519	 0.261096
H	-1.3106600226	 3.8127764758	-0.9100589706	 0.130555
H	-1.1871754154	 3.9775805573	 0.8590280847	 0.136541
H	 2.1076498581	 1.749237034	-0.5864023026	 0.132733
H	 2.2238830152	 6.337482051	-1.8763742978	 0.201726
103.6602	146.0665	161.9271	282.3368	373.2902	416.5567	467.2687	501.0373	535.2124	568.889	630.3203	659.4531	685.6439	726.7869	794.0664	848.0865	912.7086	954.1349	1032.8342	1062.793	1075.1414	1179.5608	1219.3076	1242.9301	1280.8453	1340.7377	1406.2428	1450.5987	1511.9141	1840.3095	2247.2636	3029.7277	3070.2202	3196.032	3499.9266	3650.711
O=C1NCC2(OC12)C#C	O=C1NC[C@]2(O[C@@H]12)C#C	
InChI=1S/C6H5NO2/c1-2-6-3-7-5(8)4(6)9-6/h1,4H,3H2,(H,7,8)	InChI=1S/C6H5NO2/c1-2-6-3-7-5(8)4(6)9-6/h1,4H,3H2,(H,7,8)/t4-,6+/m0/s1
