18
gdb 93943	3.51045	1.11633	0.95168	4.5664	66.97	-0.2487	0.0174	0.2661	1221.1584	0.149574	-476.260934	-476.252633	-476.251689	-476.294548	31.148	
O	-0.0920526326	 1.2042436587	 0.9641601863	-0.446616
C	-0.0211096187	 0.1567707472	-0.0002173826	 0.127162
C	 0.8063452308	-0.954561305	 0.650714733	-0.187145
N	-0.1227123183	-1.6178914308	 1.5872343494	-0.324761
H	-0.3346632229	-3.4828529105	 1.4267649044	 0.304346
H	-0.1729411162	-1.0543236379	 2.4285681953	 0.243619
C	-1.4429215456	-1.6035715413	 0.9123842686	-0.131946
C	-1.3842368567	-0.527791887	-0.2111852332	-0.25973
C	-1.7642424615	-3.0044898235	 0.3579163772	 0.427059
O	-0.9774285153	-3.9650589414	 0.8563184365	-0.368588
O	-2.6462796233	-3.2105306235	-0.4329225018	-0.343956
H	-0.7145714051	 1.8651724224	 0.6455650697	 0.28685
H	 0.4185673851	 0.5164900501	-0.9399992409	 0.074908
H	 1.1350883005	-1.6745162662	-0.1075210129	 0.118244
H	 1.6830844954	-0.572795383	 1.176445046	 0.125025
H	-2.2256444769	-1.3819936383	 1.6432763688	 0.117775
H	-2.2064322564	 0.1888573481	-0.1431920904	 0.104818
H	-1.4491974922	-1.0003341681	-1.1944645333	 0.132934
56.8896	89.3729	154.9551	219.3038	319.0846	342.9326	392.5586	424.9197	497.2687	571.1677	686.0636	750.0927	758.7484	818.2168	840.6196	876.6866	904.5752	925.4731	945.5051	962.4802	1014.7613	1058.7231	1087.4749	1099.1311	1183.3514	1196.6846	1222.5238	1230.3147	1283.6946	1285.9662	1332.1087	1353.7068	1365.1264	1415.2118	1431.4018	1463.6951	1484.2991	1496.0592	1866.7138	3016.3892	3049.4757	3069.0152	3076.3959	3115.508	3127.99	3428.9152	3540.1791	3823.6393
OC1C[NH2+]C(C1)C([O-])=O	O[C@H]1CN[C@@H](C1)C(=O)O	
InChI=1S/C5H9NO3/c7-3-1-4(5(8)9)6-2-3/h3-4,6-7H,1-2H2,(H,8,9)	InChI=1S/C5H9NO3/c7-3-1-4(5(8)9)6-2-3/h3-4,6-7H,1-2H2,(H,8,9)/t3-,4+/m1/s1
