23
gdb 40159	3.64022	1.11827	1.02442	0.084	89.74	-0.2565	0.0886	0.3451	1289.1923	0.207318	-351.146332	-351.137908	-351.136964	-351.180646	34.046	
C	-0.180762227	 1.4502450806	-0.0063326963	-0.30763
C	 1.2296712682	 0.9074438161	 0.0254916354	-0.328487
C	 0.0644426238	-0.0400430403	 0.0019285036	 0.403769
C	-0.3293070778	-0.865460107	 1.2243390916	-0.285626
C	-1.5492494153	-1.6565289374	 0.7234915343	-0.285746
C	-1.1462432437	-2.0350408505	-0.6994093433	 0.403832
C	-0.7968030297	-3.468437081	-1.0225957146	-0.307585
C	-2.0470697371	-2.8387205409	-1.5930001631	-0.328643
C	-0.2754510915	-0.886611887	-1.2366178779	-0.377513
H	-0.5697457159	 1.9140232221	 0.8949793295	 0.106123
H	-0.5288287888	 1.9075684379	-0.9274103989	 0.105694
H	 1.8316684732	 1.0010454107	-0.8731021564	 0.106434
H	 1.7943541216	 1.004310458	 0.9477347602	 0.10591
H	 0.4780441843	-1.5607068669	 1.4899446572	 0.096615
H	-0.5367417462	-0.2495671286	 2.1045529213	 0.088645
H	-1.7929809855	-2.5255472964	 1.3419828786	 0.088653
H	-2.4319669183	-1.0035997686	 0.7078649495	 0.09659
H	 0.0324116173	-3.6543882133	-1.6982308119	 0.105708
H	-0.9114648522	-4.2156203686	-0.2432807077	 0.106127
H	-3.0067488686	-3.1601050277	-1.1999310464	 0.105919
H	-2.0602803639	-2.6025615926	-2.6525683555	 0.106442
H	-0.8109208774	-0.2912167552	-1.9851041692	 0.097396
H	 0.6285281107	-1.2719752536	-1.7221350398	 0.097371
10.987	141.0933	231.2404	299.9529	303.9917	372.4449	378.1755	402.0053	450.4984	548.5002	700.6719	770.6137	779.8118	782.7307	834.2835	875.7121	880.4451	901.3877	924.5528	933.9745	952.8895	975.0357	991.8259	994.8611	1037.9957	1053.3073	1053.863	1075.4202	1079.8454	1080.6718	1180.2956	1182.7926	1189.3868	1192.0152	1217.4902	1241.3529	1283.8803	1308.3016	1309.407	1329.4388	1366.7575	1392.3386	1466.4882	1466.6754	1486.1831	1488.977	1500.6103	1504.2505	1506.2945	3015.6538	3022.1917	3024.4748	3058.5993	3078.5625	3083.2736	3117.2574	3117.4	3121.7648	3121.9475	3194.5	3194.613	3209.9764	3210.1848
C1CC11CCC2(CC2)C1	C1CC21CCC1(CC1)C2	
InChI=1S/C9H14/c1-2-8(1)5-6-9(7-8)3-4-9/h1-7H2	InChI=1S/C9H14/c1-2-8(1)5-6-9(7-8)3-4-9/h1-7H2
