17
gdb 128683	6.19933	0.8483	0.75778	2.977	72.6	-0.2099	0.0287	0.2386	1466.5315	0.136443	-455.150632	-455.141578	-455.140634	-455.184974	32.132	
C	 0.0592303431	 1.5116243342	-0.1848659449	-0.23068
O	 0.5905649631	 0.2332490103	 0.1454812845	-0.268919
C	 0.7925911845	-0.5980875489	-0.8918100269	 0.47829
N	 0.5325590621	-0.264785491	-2.1498050208	-0.331576
N	 0.8939581062	-1.3703305064	-2.8503752222	-0.266932
C	 1.3373611386	-2.3779042988	-2.0662322043	 0.428117
C	 1.8020173479	-3.6671328658	-2.6645462895	-0.189091
O	 1.183231158	-3.8022533814	-3.9387214898	-0.42442
C	 1.2966563612	-1.9147590898	-0.7668293879	-0.4825
H	 0.7298196194	 2.0544167448	-0.8596255975	 0.129797
H	-0.9177408675	 1.4184521907	-0.671139362	 0.13007
H	-0.0402641728	 2.0490685226	 0.7595108176	 0.122407
H	 0.71948661	-1.4268084143	-3.8385127573	 0.276684
H	 2.8992325412	-3.6620446247	-2.7635405582	 0.113671
H	 1.5411785771	-4.4990443401	-1.9938963544	 0.11456
H	 1.6288128425	-4.5067926366	-4.4171529323	 0.296611
H	 1.5826702954	-2.4296069747	 0.1347821161	 0.103911
55.9407	89.7054	157.2243	178.1671	208.2537	252.1141	279.2528	361.9233	383.6435	492.8899	560.5297	647.9658	681.0624	717.7692	756.9772	777.9879	985.9995	1029.7855	1036.7126	1061.1088	1077.1303	1176.2675	1181.6453	1182.1774	1217.0292	1229.3351	1243.859	1310.4962	1412.1632	1451.4499	1464.4762	1478.4585	1501.1335	1510.4331	1522.9738	1555.3754	1616.7884	2971.4633	3006.2364	3028.538	3092.7424	3138.877	3274.0345	3691.9764	3841.5725
COC1=NNC(CO)=C1	COc1n[nH]c(CO)c1	
InChI=1S/C5H8N2O2/c1-9-5-2-4(3-8)6-7-5/h2,8H,3H2,1H3,(H,6,7)	InChI=1S/C5H8N2O2/c1-9-5-2-4(3-8)6-7-5/h2,8H,3H2,1H3,(H,6,7)
