23
gdb 91928	2.05647	1.68851	1.49268	1.4048	84.23	-0.2582	0.0724	0.3307	1083.9218	0.206068	-388.296897	-388.287815	-388.286871	-388.329571	36.799	
C	 0.0302577374	 1.5772186795	-0.0472171625	-0.418878
C	 0.0560084923	 0.0431460317	-0.0265792923	 0.281656
C	-1.388298952	-0.4951415601	 0.0058976403	-0.426622
C	 0.7724674394	-0.5638273002	-1.2380091558	-0.034784
C	 2.280313823	-0.5261363487	-1.2925119945	-0.313017
C	 1.5754545701	-1.7626319654	-0.7871301049	-0.035793
C	 1.395528702	-1.8996623278	 0.7169112004	-0.247292
C	 0.8314912312	-0.5380769252	 1.1968527287	 0.062283
O	 1.8670321222	 0.3716517409	 1.5701667068	-0.430256
H	 1.0375913497	 1.9923716195	-0.0962029544	 0.129698
H	-0.5321981127	 1.9301535953	-0.9186766625	 0.099547
H	-0.4551099722	 1.9787667741	 0.8487991019	 0.105743
H	-1.9321318997	-0.1897845503	-0.8944156038	 0.111619
H	-1.4140787956	-1.5888337699	 0.0512389875	 0.111475
H	-1.9341410933	-0.1063983126	 0.872497715	 0.109066
H	 0.227944731	-0.5772374715	-2.1772568319	 0.070071
H	 2.7334938478	-0.5887982276	-2.2764763421	 0.099994
H	 2.8144013536	 0.0929867835	-0.5822659852	 0.129109
H	 1.6232329034	-2.6671136637	-1.3838487904	 0.07498
H	 0.6784500499	-2.6995868997	 0.9356374829	 0.098835
H	 2.3209053563	-2.1486245045	 1.2518105609	 0.083494
H	 0.1482268541	-0.6705017331	 2.0481403104	 0.058988
H	 2.3776244422	-0.0419225443	 2.2729109856	 0.280084
139.9149	207.2736	216.8651	239.4467	257.7384	285.3943	316.4366	340.8902	359.429	433.151	440.0152	508.8118	580.6959	690.0432	763.2781	803.4697	830.3965	872.8394	890.3347	913.9857	948.1342	965.4613	989.8379	1026.5676	1030.0857	1040.6207	1081.4127	1084.1911	1108.0287	1119.5608	1165.1458	1199.7172	1216.3459	1225.8912	1239.4089	1270.0065	1303.1319	1332.9939	1371.8589	1388.377	1399.5439	1410.7499	1433.4853	1480.4209	1483.0949	1487.7989	1491.3965	1502.9541	1508.2821	2986.2658	3023.4943	3027.0661	3034.7517	3060.8474	3090.4819	3096.9217	3098.9329	3134.8609	3138.4954	3149.1989	3165.0238	3229.435	3822.5566
CC1(C)C2CC2CC1O	CC1(C)[C@H]2C[C@H]2C[C@H]1O	
InChI=1S/C8H14O/c1-8(2)6-3-5(6)4-7(8)9/h5-7,9H,3-4H2,1-2H3	InChI=1S/C8H14O/c1-8(2)6-3-5(6)4-7(8)9/h5-7,9H,3-4H2,1-2H3/t5-,6-,7+/m0/s1
