18
gdb 85177	2.24093	1.71009	1.1542	2.6883	72.67	-0.2628	0.0248	0.2876	1092.8826	0.147233	-439.064145	-439.05569	-439.054746	-439.097483	31.386	
C	-0.1424875382	 1.5927216725	 0.0574462797	-0.415072
C	 0.1575464479	 0.1129846182	-0.0246203857	 0.125734
O	 1.4401412542	-0.1507037968	-0.7001135273	-0.265811
C	 1.9482203021	-0.7945770584	 0.3994890751	 0.447843
N	 3.0692062655	-1.3234285978	 0.5965231583	-0.55214
C	 0.6901001583	-0.6398473228	 1.2337449683	-0.199991
C	 0.795557496	 0.0908898153	 2.5478066498	 0.053804
C	 2.0027425909	 0.0160162722	 3.3825089359	-0.181814
O	 1.7016376933	 1.1901854527	 2.6174458591	-0.23104
H	 0.6534924581	 2.1259816554	 0.5798141786	 0.162442
H	-0.2497028764	 2.0073287661	-0.9492973272	 0.130403
H	-1.0846423541	 1.7556032325	 0.5920172421	 0.121127
H	-0.6347155715	-0.4271678255	-0.5519869339	 0.094125
H	 3.6758595811	-1.225373003	-0.219325533	 0.228976
H	 0.1831061245	-1.5960683004	 1.3975574696	 0.112769
H	-0.1598074055	 0.2710633857	 3.0440877665	 0.09617
H	 1.9101042345	 0.1329563388	 4.4608558194	 0.114936
H	 2.8518264893	-0.5594452346	 3.0226240546	 0.157539
88.7381	102.5765	167.1994	175.6898	235.2489	301.5024	369.8801	427.9308	473.6979	531.31	683.7312	727.5394	790.5768	832.9822	866.98	877.3519	905.9234	913.7135	992.6853	1031.6119	1046.4779	1072.7729	1101.2692	1117.8344	1158.0829	1175.0973	1177.9671	1219.5743	1238.7176	1289.0974	1332.037	1359.9872	1385.657	1414.8793	1425.0465	1485.5578	1498.9053	1521.1744	1816.6561	3043.2643	3057.4555	3070.7943	3090.9068	3098.1739	3109.3546	3148.4165	3199.1479	3476.584
CC1OC(=N)C1C1CO1	C[C@H]1O[C]([NH])[C@H]1[C@H]1CO1	
InChI=1S/C6H9NO2/c1-3-5(4-2-8-4)6(7)9-3/h3-5,7H,2H2,1H3	InChI=1S/C6H9NO2/c1-3-5(4-2-8-4)6(7)9-3/h3-5,7H,2H2,1H3/t3-,4-,5-/m1/s1
