14
gdb 35594	3.98858	1.05108	0.90339	1.1202	77.92	-0.2546	-0.0348	0.2198	1246.5512	0.099254	-399.486308	-399.478026	-399.477082	-399.519974	30.179	
C	-0.3602622522	-1.2413181679	-0.2512666118	-0.457902
C	-0.1209699709	-0.072090992	-0.1147445135	 0.333229
C	 0.1232630271	 1.3494225902	 0.0674524156	-0.092695
C	-0.461637001	 1.9444925323	 1.3934074427	-0.207547
N	 0.6961238627	 2.4623651257	 2.1213712719	-0.316395
C	 1.7148895362	 2.2283877226	 1.3955206909	 0.260361
O	 1.5498660139	 1.6092089745	 0.1891776744	-0.252945
C	 3.0593743644	 2.563161989	 1.7230902124	 0.276859
C	 4.1966749734	 2.8433232584	 1.9885431931	-0.35283
H	-0.5633312746	-2.2764159421	-0.3772470547	 0.210006
H	-0.2229580984	 1.9023340474	-0.8114634238	 0.124937
H	-1.1746005211	 2.7510537873	 1.1962957154	 0.128353
H	-0.9733340345	 1.1826158324	 1.988103002	 0.136857
H	 5.2004882551	 3.093541552	 2.2309456956	 0.209711
38.1441	124.527	159.216	193.1796	235.7499	374.1403	472.9215	483.8392	559.5103	612.8924	623.9338	657.8534	673.6723	679.7673	710.049	751.9342	834.5146	942.1845	977.7364	1022.4062	1043.5032	1063.7009	1200.3544	1229.5099	1303.3764	1332.0402	1375.6354	1493.1434	1697.5075	2242.029	2253.6274	3050.33	3057.7339	3095.0695	3500.3098	3501.2555
C#CC1CN=C(O1)C#C	C#C[C@H]1CN=C(O1)C#C	
InChI=1S/C7H5NO/c1-3-6-5-8-7(4-2)9-6/h1-2,6H,5H2	InChI=1S/C7H5NO/c1-3-6-5-8-7(4-2)9-6/h1-2,6H,5H2/t6-/m0/s1
