19
gdb 80176	2.22641	1.67282	1.43052	2.5726	74.21	-0.2481	-0.0291	0.219	1024.5065	0.159221	-423.043794	-423.035338	-423.034394	-423.076675	32.529	
C	-0.34448964	 1.458632485	 0.0068160984	-0.426634
C	-0.010286571	-0.0178177802	 0.0749873987	-0.010262
C	 1.3186990459	-0.6290310008	-0.3133576819	-0.078388
C	 2.5384947811	 0.2752284421	-0.4217962204	-0.331776
C	 2.6018735735	 0.9793312917	 0.9280925779	 0.347856
O	 3.1234036635	 2.0349920829	 1.1916401023	-0.332979
C	 1.7921589821	 0.1797405918	 1.9624120003	 0.054919
O	 1.1934794177	 1.0342495686	 2.9061474439	-0.440123
C	 0.8427760373	-0.6638492005	 1.1416772739	-0.084548
H	 0.4828983803	 2.1075520355	 0.2993657435	 0.137622
H	-0.6409908331	 1.7381409419	-1.0103273898	 0.115063
H	-1.1789012585	 1.6880375059	 0.6765165939	 0.131906
H	-0.852387684	-0.6453990635	-0.2082759167	 0.090505
H	 1.3102246775	-1.5337044765	-0.910059012	 0.088998
H	 3.4527728311	-0.3174861609	-0.5565848507	 0.133816
H	 2.5102244547	 1.0097245299	-1.2319932289	 0.134665
H	 2.5099320361	-0.5028365806	 2.4581873636	 0.089783
H	 1.7647202625	 1.8159402667	 2.9463499417	 0.289367
H	 0.4937891433	-1.5907874088	 1.5812975724	 0.090209
96.6884	134.7512	154.4272	208.4247	269.3441	323.3198	414.0633	430.0492	479.0317	542.0241	583.2871	628.7088	702.3491	748.2817	762.9117	810.9702	878.3825	955.1515	964.8482	1000.3679	1018.7348	1062.7369	1087.6518	1110.0098	1136.0499	1140.9458	1168.9779	1186.2969	1233.4055	1241.149	1283.0942	1334.0244	1356.8777	1376.7798	1414.5332	1426.2657	1441.9903	1456.0524	1486.6669	1504.1549	1835.0856	2912.478	3033.2481	3039.1418	3089.6263	3099.3728	3120.52	3137.8573	3169.5328	3179.6848	3719.7546
CC1C2CC(=O)C(O)C12	C[C@H]1[C@H]2CC(=O)[C@@H](O)[C@@H]12	
InChI=1S/C7H10O2/c1-3-4-2-5(8)7(9)6(3)4/h3-4,6-7,9H,2H2,1H3	InChI=1S/C7H10O2/c1-3-4-2-5(8)7(9)6(3)4/h3-4,6-7,9H,2H2,1H3/t3-,4+,6-,7+/m0/s1
