21
gdb 111561	3.14604	1.40094	1.18988	1.6718	80.82	-0.2349	0.0781	0.313	1130.4918	0.184572	-387.0486	-387.041021	-387.040076	-387.080828	30.684	
C	-0.0018661749	 1.581544872	-0.1816375582	-0.385425
C	 0.0247687765	 0.0718964645	 0.0885836986	-0.216686
C	-1.379506682	-0.5334006528	 0.1655553846	 0.076024
C	-1.5105733588	-2.0740917222	 0.2461350677	-0.128009
C	-0.7588598439	-2.4339157847	 1.5542477199	-0.25521
C	-1.9036577642	-1.6730791794	 2.2409137067	-0.069482
C	-2.8667639372	-2.0999213838	 1.1160289125	 0.107471
O	-3.5035476288	-0.822141396	 1.0533105901	-0.293818
C	-2.1932997975	-0.3204582524	 1.4661083062	 0.046012
H	 1.0112058823	 1.9923746502	-0.2317509719	 0.111895
H	-0.500371438	 1.8039890566	-1.1313151169	 0.118074
H	-0.5393606561	 2.1215530773	 0.6052302128	 0.116857
H	 0.5881492096	-0.4281571239	-0.7097262053	 0.097595
H	 0.5809417217	-0.1145543938	 1.0136833604	 0.09907
H	-1.9821016889	-0.1441465467	-0.661942605	 0.077498
H	-1.3837569862	-2.6514357492	-0.6686283885	 0.063583
H	-0.8299604229	-3.5017609307	 1.7833591919	 0.099521
H	 0.2761707175	-2.1106493417	 1.6765915698	 0.099289
H	-2.1464537924	-1.7202478023	 3.3009820726	 0.074505
H	-3.5249928462	-2.967514107	 1.098353467	 0.083669
H	-2.2290206597	 0.656551776	 1.946462465	 0.077568
70.5358	173.5384	180.6843	262.6079	360.0722	448.3654	503.0356	525.9732	669.5652	722.5108	755.8689	784.369	827.0311	845.3987	864.0407	878.4421	931.1292	954.882	958.5129	990.3025	995.7659	1011.9305	1038.0522	1065.472	1073.4077	1094.8595	1125.5114	1154.0122	1169.7005	1181.705	1205.4963	1220.6951	1244.635	1259.831	1287.3599	1309.2353	1314.1092	1325.2418	1353.6648	1394.369	1411.2646	1486.4668	1499.7446	1506.1108	1508.8057	3024.2109	3032.1232	3048.5309	3058.9413	3067.6739	3100.0159	3104.0373	3117.166	3122.5792	3126.2692	3130.1392	3141.6157
CCC1C2CC3C2OC13	CC[C@H]1[C@H]2C[C@@H]3[C@H]2O[C@H]13	
InChI=1S/C8H12O/c1-2-4-5-3-6-7(4)9-8(5)6/h4-8H,2-3H2,1H3	InChI=1S/C8H12O/c1-2-4-5-3-6-7(4)9-8(5)6/h4-8H,2-3H2,1H3/t4-,5+,6-,7+,8-/m0/s1
