18
gdb 28867	2.37723	1.80122	1.03861	3.5679	82.28	-0.2277	-0.0112	0.2165	1135.0629	0.149187	-398.210928	-398.202251	-398.201306	-398.243903	32.789	
C	-0.0184531668	 1.5078451235	 0.090964373	-0.490244
C	-0.0171458217	 0.0020605213	-0.0061059331	 0.257407
C	-0.0089720936	-0.6656098135	-1.22958305	 0.176985
C	-0.0192726028	 0.0239959264	-2.5683874302	-0.530099
C	 0.0003002411	-2.0753787709	-1.1587980529	 0.327312
N	-0.026698529	-2.8489736395	-2.2925480822	-0.565502
N	-0.0076000045	-2.737343995	 0.0057993999	-0.329078
C	-0.0262271014	-1.9825768679	 1.0999574971	 0.057374
N	-0.026413135	-0.6565714397	 1.1697658237	-0.325139
H	 0.8556343809	 1.9464261312	-0.4026843603	 0.129568
H	-0.9074676682	 1.9416779028	-0.3803725425	 0.131939
H	-0.0075787256	 1.7933822003	 1.1430359186	 0.142988
H	 0.911083915	-0.153839454	-3.1263134278	 0.125301
H	-0.8429188194	-0.3418016302	-3.1940124465	 0.136308
H	-0.1321063305	 1.1042384759	-2.4722005397	 0.133369
H	 0.3297423632	-2.4602667619	-3.1492655701	 0.255066
H	 0.1758472315	-3.8245375378	-2.1363905478	 0.259143
H	-0.0373518131	-2.517067861	 2.0480560907	 0.107303
107.3907	145.0107	153.4055	222.8804	280.9225	311.5841	322.987	404.5025	487.9822	513.6122	520.7656	532.4946	565.4246	643.7265	689.2935	816.0132	882.6795	929.321	991.1654	994.0356	1045.9914	1051.3401	1070.3368	1140.0627	1197.4473	1289.5094	1310.3083	1361.0192	1400.5266	1413.0147	1458.6556	1469.6635	1477.2138	1481.9749	1499.094	1510.0985	1604.3976	1613.1602	1643.5284	3006.9827	3035.871	3056.446	3089.0894	3139.4225	3150.088	3150.9671	3591.4712	3712.8279
CC1=C(C)C(N)=NC=N1	Cc1c(C)c(N)ncn1	
InChI=1S/C6H9N3/c1-4-5(2)8-3-9-6(4)7/h3H,1-2H3,(H2,7,8,9)	InChI=1S/C6H9N3/c1-4-5(2)8-3-9-6(4)7/h3H,1-2H3,(H2,7,8,9)
