17
gdb 79212	2.62057	1.66451	1.31597	4.1187	76.66	-0.2382	0.0052	0.2433	1006.1012	0.137037	-380.813149	-380.805603	-380.804659	-380.84499	29.61	
C	 0.0332728719	 1.5900961205	 0.0226775205	-0.425918
C	 0.0801980865	 0.0734848424	-0.0369156604	 0.010983
C	 0.810006129	-0.6641188195	-1.1624369713	-0.100807
C	 2.2703841448	-0.8090115644	-0.7212272563	-0.020085
N	 2.4011833021	-0.0740353301	 0.559558673	-0.349101
C	 1.0677367716	-0.6982884416	 0.9062846598	 0.19889
C	 0.7722816226	-0.9309259404	 2.2941781279	 0.147177
N	 0.5281619914	-1.1363132816	 3.4059432598	-0.338169
C	 1.2433368281	-1.7892340459	-0.2404928908	-0.157794
H	 1.0383444799	 2.0118574822	-0.0332361823	 0.144991
H	-0.5609131558	 1.9840668329	-0.8088345771	 0.115879
H	-0.4336335299	 1.9285376754	 0.9540032153	 0.126007
H	-0.9153609144	-0.3645233919	 0.0846267831	 0.094196
H	 0.5218302942	-0.7410423723	-2.2026124592	 0.100932
H	 3.0896133066	-0.9259665477	-1.4174250341	 0.109691
H	 3.1057359378	-0.5620065361	 1.1131561413	 0.230222
H	 1.1207589236	-2.862734972	-0.2765244893	 0.112907
127.0215	162.9188	196.4459	241.1628	286.1001	474.1183	502.8428	534.8757	572.2588	607.7296	700.1496	756.7015	776.6319	807.8303	874.3514	909.2607	919.6396	941.9501	983.1555	1012.3182	1019.9629	1052.0334	1086.2658	1113.3707	1135.7558	1144.841	1178.0738	1198.3438	1264.3367	1286.258	1327.3275	1385.3163	1388.8789	1408.1451	1487.0144	1503.1179	2351.7876	3037.5526	3065.4496	3097.9655	3140.6932	3203.5904	3208.068	3223.327	3457.3652
CC1C2C3NC1(C#N)C23	C[C@H]1[C@H]2[C@H]3N[C@]1(C#N)[C@@H]23	
InChI=1S/C7H8N2/c1-3-4-5-6(4)9-7(3,5)2-8/h3-6,9H,1H3	InChI=1S/C7H8N2/c1-3-4-5-6(4)9-7(3,5)2-8/h3-6,9H,1H3/t3-,4+,5-,6+,7-/m0/s1
