15
gdb 11807	3.63868	1.85083	1.40328	1.4102	63.26	-0.2574	0.0138	0.2712	882.298	0.117741	-399.770926	-399.763267	-399.762323	-399.803099	28.067	
O	 0.0743082373	 1.2862351082	-0.25381845	-0.425826
C	 0.0798881315	-0.1031529287	-0.0606375409	-0.101368
C	 0.1176657304	-0.6009485414	 1.3782080082	 0.40396
N	 0.9261721216	-0.4522366513	 2.3235518926	-0.557488
O	-1.0962907581	-1.2491122496	 1.2983420825	-0.27034
C	-1.2984854742	-0.7550077867	-0.0555529149	 0.445543
C	-2.6031511242	-0.2189593823	-0.5111007716	-0.321185
C	-2.051188068	-1.5256179246	-1.0763921421	-0.343956
H	 0.8312679389	 1.6466309708	 0.2222542097	 0.302795
H	 0.8069644149	-0.6103192594	-0.7102097367	 0.101663
H	 0.5973709856	-0.8967897183	 3.1822395779	 0.232398
H	-3.4368841	-0.2891981389	 0.1785802162	 0.13299
H	-2.5884471388	 0.6713634936	-1.129737355	 0.140179
H	-1.6729292389	-1.5400043329	-2.0933079087	 0.127477
H	-2.5247796681	-2.4458700185	-0.7525308472	 0.133157
81.6782	112.0509	197.6809	242.023	261.9579	359.2662	451.2702	517.955	558.4783	684.5885	756.901	796.8404	863.4967	873.9968	886.6799	934.8586	970.6239	1018.5096	1030.1137	1051.0498	1075.5863	1157.459	1177.3964	1183.7314	1198.7367	1301.2553	1331.2366	1364.1451	1429.7019	1450.7145	1506.3306	1833.9435	3009.344	3133.6093	3141.0591	3219.2468	3234.7112	3478.0092	3806.0358
OC1C(=N)OC11CC1	O[C@H]1[C]([NH])OC21CC2	
InChI=1S/C5H7NO2/c6-4-3(7)5(8-4)1-2-5/h3,6-7H,1-2H2	InChI=1S/C5H7NO2/c6-4-3(7)5(8-4)1-2-5/h3,6-7H,1-2H2/t3-/m0/s1
