21
gdb 39126	3.31779	1.32081	1.1899	2.0131	80.88	-0.241	0.0757	0.3167	1124.5444	0.184893	-387.069649	-387.06189	-387.060946	-387.102437	30.724	
C	-0.0372228592	 1.4731897918	 0.0028596704	-0.307203
C	 1.3110416094	 0.7991608114	-0.0189125753	-0.026049
C	 2.0335472012	 0.6371599984	 1.312729009	-0.221699
C	 0.9543620396	 0.0892047716	 2.2740329535	-0.313127
C	-0.0108823381	-0.7237859009	 1.3866998316	 0.324141
C	 0.2042942229	-2.2616682817	 1.3595581695	-0.121416
O	-1.0671827643	-2.5027442602	 1.9893287423	-0.273762
C	-1.3844386166	-1.0963195427	 1.9958679284	-0.131041
C	 0.0482875548	-0.0362074483	 0.0367957089	-0.098639
H	-0.3516385254	 2.0138736036	 0.8898557818	 0.10935
H	-0.380615675	 1.9187706377	-0.9243024817	 0.111153
H	 1.9014122086	 0.8618739724	-0.9262223042	 0.082099
H	 2.8456242415	-0.0906194871	 1.1957055094	 0.101274
H	 2.4841843192	 1.5653613415	 1.6803521766	 0.098495
H	 1.3729534306	-0.5093288536	 3.0878146108	 0.102988
H	 0.4083707863	 0.9145104472	 2.7446600405	 0.105027
H	 0.2571142875	-2.7081831711	 0.3570667513	 0.092599
H	 1.0419344725	-2.6405574764	 1.9602241316	 0.093614
H	-1.5735884434	-0.7234741083	 3.0113022503	 0.093263
H	-2.2536004766	-0.8666113865	 1.3652888538	 0.096255
H	-0.3064284055	-0.5860913689	-0.8287822885	 0.082679
47.1978	116.6256	209.6542	301.1884	347.662	382.0919	419.745	489.2563	631.1325	707.5235	800.8856	820.7736	831.9598	857.0685	892.0858	924.9631	946.5138	973.5321	974.9993	990.758	1025.3022	1032.4201	1042.9234	1065.321	1074.9124	1108.3502	1138.3264	1149.5698	1155.7221	1160.611	1205.4783	1216.1114	1234.8997	1272.4883	1309.1922	1318.1672	1328.1801	1367.5446	1379.8739	1399.1195	1481.5846	1492.407	1505.6193	1513.0806	1536.3563	2990.8877	3003.8118	3031.5159	3036.8999	3039.742	3044.0762	3070.858	3092.0142	3128.7256	3158.3003	3171.1636	3211.446
C1C2CCC3(COC3)C12	C1[C@H]2CCC3(COC3)[C@@H]12	
InChI=1S/C8H12O/c1-2-8(4-9-5-8)7-3-6(1)7/h6-7H,1-5H2	InChI=1S/C8H12O/c1-2-8(4-9-5-8)7-3-6(1)7/h6-7H,1-5H2/t6-,7+/m1/s1
