14
gdb 123568	3.2114	1.48171	1.10578	4.692	74.69	-0.2381	-0.0692	0.1689	1032.4089	0.101787	-432.846765	-432.839522	-432.838578	-432.878837	26.794	
C	 0.080310501	 1.518077048	-0.0568304813	-0.246311
C	 1.2931991399	 0.6790959623	 0.0579848982	-0.013956
C	 1.8076366294	 0.2838850473	 1.4470785223	-0.357851
C	 0.6091257371	-0.4606032279	 1.9720988999	 0.205048
C	-0.4648573401	-0.6053427142	 0.9763560815	 0.317767
O	-1.5305029641	-1.1483775726	 1.0947301112	-0.335651
N	 0.3211308555	-1.3499127784	 4.2160109498	-0.225558
N	 0.4747827224	-0.926873047	 3.1753706092	 0.140939
N	-0.0092571157	 0.0457489506	-0.2328230881	-0.132666
H	-0.3432548545	 1.9388681719	 0.8522500142	 0.132612
H	-0.1075561686	 2.0904083877	-0.9594486928	 0.137997
H	 2.0067347773	 0.6615287301	-0.759112407	 0.112808
H	 2.690958073	-0.3586441625	 1.3548038891	 0.133443
H	 2.0922199176	 1.1521806546	 2.0522632536	 0.131381
88.3949	145.7117	185.2879	265.9057	361.8744	425.5611	522.6659	559.7148	598.9713	660.3562	731.4139	766.3067	803.2378	859.4272	920.8753	960.5406	1019.6651	1071.4256	1083.0126	1115.2036	1161.4728	1179.2998	1220.0041	1275.2023	1301.9243	1374.0993	1404.1397	1496.9667	1506.2407	1828.1229	2213.2497	3028.5518	3061.1571	3111.8528	3165.8589	3205.448
C1C2CC3=C(ON=N3)N12	C1[C@H]2C[C](C(=O)N12)[N][N]	
InChI=1S/C5H5N3O/c1-3-2-8(3)5-4(1)6-7-9-5/h3H,1-2H2	InChI=1S/C5H5N3O/c6-7-4-1-3-2-8(3)5(4)9/h3H,1-2H2/t3-,8?/m1/s1
