21
gdb 40837	3.80677	0.98424	0.83601	1.5832	78.62	-0.2485	0.0901	0.3386	1390.538	0.184269	-424.212697	-424.204429	-424.203485	-424.245901	31.847	
C	 0.3109451228	 1.5130989158	 0.0142872412	-0.184783
O	 1.1682119781	 0.4040343278	-0.2654993125	-0.244623
C	-0.210735971	 0.1410175679	 0.008108438	 0.078107
C	-0.5188012429	-0.6183181576	 1.2769688875	 0.000465
C	-1.9979674452	-0.4815778249	 1.6789823866	-0.214093
C	-2.3005710087	-1.3521624889	 2.9017296411	-0.077921
O	-1.9615176211	-2.7094506473	 2.6830566794	-0.242014
C	-0.5818699025	-2.8755554526	 2.3997971658	-0.084947
C	-0.1623098154	-2.1097477692	 1.143448496	-0.206562
H	 0.4913577637	 2.0130006547	 0.9655198679	 0.1106
H	 0.1134468746	 2.1764706344	-0.8266684591	 0.114325
H	-0.7779741157	-0.1788293843	-0.8697026414	 0.088941
H	 0.1022900567	-0.1882126718	 2.0756346634	 0.07254
H	-2.2481948729	 0.5636564255	 1.8959880715	 0.094999
H	-2.638107337	-0.8049482968	 0.8479911816	 0.103181
H	-1.7530807407	-0.9624006112	 3.7785057734	 0.082844
H	-3.3679439626	-1.3376726052	 3.1409990427	 0.106175
H	 0.0220803218	-2.5393872307	 3.2613444998	 0.08401
H	-0.422417472	-3.9509565466	 2.2793836104	 0.107063
H	-0.6859606065	-2.5358090558	 0.2777348454	 0.100512
H	 0.9123708066	-2.2279521534	 0.9684407813	 0.111179
78.1855	114.5706	169.8249	238.7177	272.8073	348.6012	405.2221	455.0375	482.3141	492.3165	584.9085	820.5409	822.9824	847.8142	865.6816	898.1905	916.906	970.8667	999.1123	1013.2769	1022.5076	1087.4504	1103.4853	1111.7165	1158.1121	1161.5649	1172.1869	1193.4806	1194.8177	1262.8348	1267.5195	1283.5128	1300.7511	1323.4974	1336.3933	1370.9693	1386.8017	1387.536	1425.0341	1451.3358	1472.3762	1484.3786	1492.684	1504.3481	1530.6854	2946.3174	2953.078	3006.324	3022.597	3027.9282	3068.9245	3077.7564	3080.8224	3082.1129	3083.2308	3085.8039	3165.9943
C1OC1C1CCOCC1	C1O[C@H]1C1CCOCC1	
InChI=1S/C7H12O2/c1-3-8-4-2-6(1)7-5-9-7/h6-7H,1-5H2	InChI=1S/C7H12O2/c1-3-8-4-2-6(1)7-5-9-7/h6-7H,1-5H2/t7-/m1/s1
