17
gdb 108784	2.78971	1.21315	0.87104	6.5863	72.77	-0.2555	-0.0375	0.218	1278.5942	0.136178	-459.003316	-458.994824	-458.99388	-459.036862	30.939	
O	 0.0594096909	 1.4137272961	 0.042695424	-0.406133
C	 0.0065130788	 0.0072080402	-0.0166331573	-0.155911
C	-1.4143978105	-0.4699267059	 0.0256017798	 0.267768
C	-2.4640011281	 0.3500254266	 0.1484537765	-0.287529
C	-3.8572579878	-0.1352942057	 0.0626720027	 0.422687
O	-4.8069361948	 0.5886990093	-0.087966268	-0.338705
O	-4.0509475042	-1.4864682878	 0.1031892446	-0.237641
C	-2.9728164708	-2.3074379102	 0.5624781092	-0.07765
C	-1.650668227	-1.9520828895	-0.1059547685	-0.31719
H	 0.9812022046	 1.6853153549	 0.0293726467	 0.296669
H	 0.4754672225	-0.3842683853	-0.9378262543	 0.107439
H	 0.552672762	-0.458563071	 0.8236539324	 0.105819
H	-2.3456605301	 1.4225878943	 0.221375347	 0.136787
H	-2.8786079834	-2.1975767254	 1.651170126	 0.113599
H	-3.2741884158	-3.3347179859	 0.3461386274	 0.123155
H	-1.6650217624	-2.2375998269	-1.16690944	 0.133179
H	-0.8413814737	-2.5258693378	 0.3618529118	 0.113657
79.7825	137.5976	155.8079	189.9232	218.3716	256.1885	375.6488	437.4359	492.1313	508.1557	538.8008	678.6614	740.4134	799.9651	867.8973	904.9417	930.5483	1008.6255	1017.1276	1075.4295	1093.6424	1113.6271	1150.5114	1209.8825	1228.6035	1230.1403	1262.0773	1289.1091	1326.3951	1382.4097	1428.0217	1460.4636	1467.7507	1498.4026	1508.0867	1711.5285	1826.8439	2938.0462	2952.1875	3014.9095	3021.6689	3060.7701	3106.2631	3235.4372	3844.803
OCC1=CC(=O)OCC1	OCC1=CC(=O)OCC1	
InChI=1S/C6H8O3/c7-4-5-1-2-9-6(8)3-5/h3,7H,1-2,4H2	InChI=1S/C6H8O3/c7-4-5-1-2-9-6(8)3-5/h3,7H,1-2,4H2
