16
gdb 32029	3.72291	1.22658	0.92821	4.0085	79.81	-0.2088	-0.0277	0.1811	1220.7437	0.125611	-434.113775	-434.105324	-434.10438	-434.14762	30.35	
C	-0.0404162547	 1.4031463181	-0.1016544545	-0.316486
N	-0.0011286143	-0.0343983163	 0.0861253313	-0.358416
C	 0.6506878208	-0.6121334596	 1.1149537049	 0.529798
N	 1.2000233897	 0.0773635481	 2.0637664871	-0.386264
C	 1.7969153323	-0.6663600316	 3.0564728226	-0.006578
C	 1.8439970359	-2.0174298173	 3.0779355826	-0.168072
C	 1.2382155553	-2.7672235677	 2.008479421	 0.376785
N	 1.2082860367	-4.0283818822	 1.8927023279	-0.540832
O	 0.6298169968	-1.9619207509	 1.0145041414	-0.274381
H	 0.9157732055	 1.7994368433	-0.4639893621	 0.137313
H	-0.8221620232	 1.639894671	-0.8259268635	 0.130747
H	-0.2699154037	 1.8885241149	 0.8484624371	 0.163934
H	-0.2990041826	-0.6458679697	-0.654921304	 0.262666
H	 2.2493319459	-0.0829265092	 3.8529843391	 0.11443
H	 2.3232591914	-2.5767257008	 3.8685494316	 0.117972
H	 0.7169130482	-4.3078305701	 1.0440972476	 0.217385
52.5131	91.6074	147.8938	186.8403	207.3353	373.4988	397.3764	415.8679	491.3718	531.0188	637.8011	697.2193	767.3233	793.3569	813.6383	849.9093	883.2564	958.2356	1001.2435	1039.781	1091.0613	1150.4791	1158.0527	1175.9288	1224.1578	1309.1616	1343.3262	1435.1198	1452.0105	1481.528	1510.2549	1557.6503	1624.1572	1657.201	1761.0752	3031.8883	3107.878	3148.0972	3175.7231	3241.6134	3496.6066	3666.7505
CNC1=NC=CC(=N)O1	CNC1=NCC=C([NH])O1	
InChI=1S/C5H7N3O/c1-7-5-8-3-2-4(6)9-5/h2-3,6H,1H3,(H,7,8)	InChI=1S/C5H8N3O/c1-7-5-8-3-2-4(6)9-5/h2,6H,3H2,1H3,(H,7,8)
