20
gdb 121173	2.55998	1.03321	0.78611	1.2398	79.54	-0.2428	0.0206	0.2634	1512.5657	0.168981	-440.269416	-440.259295	-440.258351	-440.305707	34.82	
C	-0.1108100421	 1.4406836234	 0.1134917822	-0.387068
C	-0.1992244858	-0.0703221488	 0.2259837872	-0.05006
O	 0.8891737826	-0.5190566713	 1.0326618373	-0.252552
C	 0.910745979	-1.9011145235	 1.2160022456	-0.023636
C	 2.0134040869	-2.3794826956	 2.1783848103	-0.111857
O	 1.0101412631	-2.9756323055	 3.0563538191	-0.267298
C	-0.0258165307	-2.4951284751	 2.2669630579	 0.446912
N	-1.2647431874	-2.5367503717	 2.4271464286	-0.331819
C	-1.8090122978	-3.1632104799	 3.6253150215	-0.340292
H	 0.8411978948	 1.7406708258	-0.3340086445	 0.124551
H	-0.9240511366	 1.8204455191	-0.5119832348	 0.118187
H	-0.1877028398	 1.9045443142	 1.1008405635	 0.129455
H	-1.1491546328	-0.381517269	 0.678947864	 0.12889
H	-0.1352836542	-0.5415160758	-0.7689508445	 0.087147
H	 0.8758008531	-2.4383368017	 0.2563021748	 0.091664
H	 2.7110446932	-3.1325945463	 1.8065793692	 0.120547
H	 2.5409322453	-1.5614522607	 2.6737010874	 0.131186
H	-2.5042929691	-2.4667191365	 4.1055098034	 0.128084
H	-2.3897075286	-4.0463529112	 3.3361131517	 0.129324
H	-1.0494344031	-3.4667285599	 4.35474673	 0.128635
59.1213	74.3543	90.8477	104.9249	161.6739	189.6246	223.5813	248.2858	309.9305	392.3795	445.8385	539.8053	708.8609	734.4937	820.0172	829.7481	916.9085	940.4192	970.0803	1046.382	1068.0608	1081.4511	1108.0729	1130.8885	1152.8743	1155.919	1178.2594	1188.991	1205.6737	1256.6891	1300.36	1326.0942	1373.6269	1403.284	1437.883	1444.7907	1483.4969	1492.7852	1497.1522	1501.0906	1508.142	1530.7798	1842.8511	2969.8779	2994.0231	3019.3015	3044.497	3046.0359	3070.2788	3084.4032	3092.117	3119.8989	3122.1837	3135.1263
CCOC1COC1=NC	CCO[C@H]1COC1=NC	
InChI=1S/C6H11NO2/c1-3-8-5-4-9-6(5)7-2/h5H,3-4H2,1-2H3	InChI=1S/C6H11NO2/c1-3-8-5-4-9-6(5)7-2/h5H,3-4H2,1-2H3/t5-/m0/s1
