22
gdb 23146	1.99779	1.06309	0.74483	0.7368	86.81	-0.2296	0.0182	0.2478	1599.1633	0.192633	-404.303091	-404.292788	-404.291844	-404.339054	37.786	
C	-0.4021688769	 1.4083876598	 0.3770406872	-0.38968
C	-0.4586359782	-0.1196770479	 0.3030321157	-0.157239
C	 0.6202856935	-0.7791880381	 1.167493072	-0.269159
C	 0.6493930598	-2.2911359032	 1.1417712619	 0.346869
N	-0.3277139149	-2.8662351256	 0.544878485	-0.189119
O	-0.2331949144	-4.2707651902	 0.5656428039	-0.408636
C	 1.7609831024	-3.0253456262	 1.7982991317	-0.061502
C	 3.2138145795	-2.6873230907	 1.4955165756	-0.264777
C	 2.6469843418	-2.3863258071	 2.8492028405	-0.277049
H	 0.5650920789	 1.7907430337	 0.030975654	 0.11014
H	-1.1793209816	 1.8628903889	-0.2451146234	 0.112213
H	-0.5486833931	 1.7652381422	 1.4030288333	 0.111009
H	-1.4430603488	-0.4773511547	 0.6196494133	 0.112844
H	-0.3418298041	-0.4520154357	-0.7340189672	 0.106581
H	 1.6077472923	-0.4011681049	 0.8656421874	 0.106696
H	 0.4982493789	-0.4557355669	 2.2114037851	 0.114922
H	-1.0406453486	-4.5273493759	 0.1093544129	 0.30266
H	 1.5550295534	-4.0785445095	 1.9310377548	 0.116815
H	 3.8995510827	-3.5194882402	 1.3842062982	 0.120907
H	 3.413503867	-1.8548931753	 0.8300654483	 0.1197
H	 2.4765433842	-1.3479507618	 3.1081305701	 0.118296
H	 2.9416242859	-3.0082958907	 3.6870388098	 0.117509
57.651	74.9781	93.5695	136.0615	217.9704	244.3554	256.3341	290.6936	316.7506	351.2622	395.9574	487.346	610.6692	624.2848	746.4137	753.2531	794.7307	835.7375	869.3517	905.4388	916.9821	953.5055	991.483	1036.1562	1053.6755	1063.6823	1082.5621	1120.9712	1129.6251	1145.0944	1202.0542	1219.5143	1256.0058	1258.7027	1321.8125	1324.7214	1368.425	1401.4072	1413.9895	1418.1001	1466.5037	1479.3029	1488.2653	1500.3641	1504.7039	1508.6708	1715.1025	3001.7281	3024.8311	3026.3073	3052.2613	3076.372	3101.2012	3102.6785	3138.2264	3142.5617	3207.4936	3216.7511	3233.1865	3828.152
CCCC(=NO)C1CC1	CCCC(=NO)C1CC1	
InChI=1S/C7H13NO/c1-2-3-7(8-9)6-4-5-6/h6,9H,2-5H2,1H3	InChI=1S/C7H13NO/c1-2-3-7(8-9)6-4-5-6/h6,9H,2-5H2,1H3
