25
gdb 93098	2.06836	1.64386	1.1837	0.1638	92.97	-0.2348	0.0335	0.2683	1209.0889	0.229361	-352.386426	-352.376841	-352.375897	-352.419642	38.654	
C	-0.0367698188	 1.5742372782	-0.0928976579	-0.421713
C	 0.0588983829	 0.0457598652	 0.0020702199	 0.029465
C	 0.6756831579	-0.5310586214	-1.2865441971	-0.266267
C	 0.9487748182	-2.0066482861	-1.2012694939	-0.054848
C	 0.928960552	-2.6791617579	-0.0519936348	-0.058953
C	 0.6454942069	-2.0339284567	 1.2782583635	-0.271581
C	 0.7861512048	-0.4910025216	 1.2723960318	 0.278005
C	 2.2820866942	-0.1176151628	 1.2842005763	-0.421649
C	 0.1265239474	 0.0559721536	 2.5506098863	-0.43053
H	 0.9525397957	 2.0421323788	-0.1385117117	 0.114516
H	-0.572253924	 1.8620131006	-1.0042712397	 0.10931
H	-0.575273783	 2.0086496247	 0.7534742067	 0.113265
H	-0.968999221	-0.3418726603	 0.0628541821	 0.068292
H	 0.0012490508	-0.3276350529	-2.1294431077	 0.098111
H	 1.6049778561	 0.0062331662	-1.5324614412	 0.102974
H	 1.1717221927	-2.5248832188	-2.1312563902	 0.079632
H	 1.1173047659	-3.7505587676	-0.0480825182	 0.079991
H	-0.3701931011	-2.3069544883	 1.6039596024	 0.098315
H	 1.3137063921	-2.453658901	 2.0425982464	 0.094075
H	 2.8254958289	-0.5810195375	 0.4563355906	 0.120846
H	 2.4306357592	 0.9651197532	 1.2269745026	 0.109121
H	 2.7482668473	-0.4601509954	 2.2147587711	 0.106545
H	 0.5214266916	-0.4574349384	 3.4346591447	 0.1063
H	 0.3137778708	 1.1256438809	 2.6843866479	 0.111015
H	-0.9586758775	-0.0974224247	 2.5351089603	 0.105765
127.3005	150.8062	217.5676	238.3331	263.0439	279.2239	314.1527	342.9281	354.4803	393.4101	418.7248	455.4582	498.8258	530.229	668.4265	690.3365	768.2287	879.8419	890.4595	906.9284	922.9844	949.4924	965.5606	980.6578	1003.5737	1018.2199	1028.3901	1059.4627	1104.1695	1136.4994	1152.3262	1182.6719	1211.8004	1230.327	1251.3235	1299.4817	1327.7417	1359.4208	1371.8132	1382.0438	1400.095	1408.5888	1414.5161	1425.7958	1470.3019	1474.896	1486.0765	1492.269	1500.4348	1509.1701	1513.0208	1513.4712	1728.2957	2982.1373	2987.1189	2994.1909	3023.4157	3025.0584	3026.1715	3033.4453	3037.8619	3086.6091	3092.6233	3095.4138	3101.1553	3114.7667	3116.092	3136.9538	3161.1829
CC1CC=CCC1(C)C	C[C@H]1CC=CCC1(C)C	
InChI=1S/C9H16/c1-8-6-4-5-7-9(8,2)3/h4-5,8H,6-7H2,1-3H3	InChI=1S/C9H16/c1-8-6-4-5-7-9(8,2)3/h4-5,8H,6-7H2,1-3H3/t8-/m0/s1
