18
gdb 47016	3.51913	1.33572	1.01508	5.3018	82.18	-0.2168	-0.018	0.1988	1145.164	0.150582	-401.972832	-401.965485	-401.964541	-402.004582	29.245	
O	 0.0299544098	-0.0659128843	 0.0150772697	-0.361278
C	 0.0046107139	 1.1525292375	 0.015740187	 0.40061
C	-1.3511714975	 1.8893497162	 0.1326584263	-0.310372
C	-1.2853507709	 3.2917973681	 0.7758431997	-0.255491
C	-0.2410077471	 4.0755311172	-0.0061776971	-0.070656
C	 0.6434893285	 5.2412939218	 0.5479882	-0.208986
N	 1.818228599	 4.4480721275	 0.0968263831	-0.371061
C	 1.0560906173	 3.3086988759	-0.0602253245	 0.441317
C	 1.2155074676	 1.9731718774	-0.050486238	-0.390426
H	-1.7607934051	 1.9771275551	-0.8837331325	 0.119065
H	-2.02196831	 1.2227932566	 0.6800842238	 0.121384
H	-2.2682280518	 3.7745479255	 0.7608042457	 0.101667
H	-0.978308914	 3.2041447942	 1.8250102036	 0.105969
H	-0.6126635389	 4.3181369784	-1.0075195479	 0.10557
H	 0.5503248415	 6.2209499204	 0.0729311311	 0.117384
H	 0.584413568	 5.3463914501	 1.6373559263	 0.117109
H	 2.728138736	 4.4633286447	 0.5379087762	 0.2478
H	 2.1765045239	 1.4744875277	 0.0055896774	 0.090395
102.3151	202.9698	216.9232	331.371	358.053	435.983	455.7579	520.157	551.66	634.7298	665.1534	749.7831	768.1088	844.8409	856.7907	898.202	944.2234	976.584	985.8612	1001.6644	1080.4851	1108.3996	1144.5357	1167.4383	1201.7995	1207.9911	1235.4718	1252.0863	1273.8644	1319.2821	1335.494	1364.0293	1373.0099	1386.4562	1462.8291	1496.4147	1514.1134	1719.9973	1757.0112	3017.7464	3031.8976	3037.3462	3050.4794	3078.997	3102.4187	3103.6693	3193.9151	3579.4434
O=C1CCC2CNC2=C1	O=C1CC[C@H]2CNC2=C1	
InChI=1S/C7H9NO/c9-6-2-1-5-4-8-7(5)3-6/h3,5,8H,1-2,4H2	InChI=1S/C7H9NO/c9-6-2-1-5-4-8-7(5)3-6/h3,5,8H,1-2,4H2/t5-/m0/s1
