14
gdb 46132	3.47322	1.08854	0.89266	6.0257	62.04	-0.3085	0.0103	0.3187	1222.6672	0.101728	-473.883656	-473.875843	-473.874899	-473.917334	27.223	
O	 0.1336857073	 0.0380506148	 0.0540206948	-0.355091
C	 0.0550691175	 1.2206625435	 0.0313789972	 0.50397
O	-1.0793558837	 1.9331557269	 0.2635365238	-0.237516
C	-0.8472705598	 3.3171593238	 0.0101626075	-0.124974
C	 0.6903654332	 3.4216483461	-0.0380848186	 0.084222
C	 1.2953532409	 3.978764796	 1.2619205592	-0.362386
C	 2.7547988552	 4.0236660073	 1.2333793803	 0.273471
N	 3.9078004991	 4.0772570303	 1.2011299417	-0.286041
O	 1.0935715667	 2.0663668028	-0.2283112007	-0.239816
H	-1.3107901139	 3.5949223626	-0.9412613164	 0.139214
H	-1.2962142965	 3.9039390898	 0.8149773606	 0.137768
H	 1.0430207546	 4.0016852103	-0.8932074977	 0.132731
H	 0.9154227243	 4.9944234798	 1.4236353717	 0.162783
H	 0.9658235851	 3.367789496	 2.1100955866	 0.171666
50.6061	93.3272	132.0831	173.0792	321.2926	383.0877	401.0979	516.9807	556.0111	713.7466	762.4017	776.046	851.7997	901.42	940.3423	957.2573	1034.0468	1075.4332	1103.4311	1127.5149	1138.292	1226.3143	1256.1614	1299.1964	1360.8527	1392.6326	1414.2453	1456.7176	1525.0973	1941.1871	2371.785	3043.2977	3057.6451	3083.2641	3101.8086	3113.9526
O=C1OCC(CC#N)O1	O=C1OC[C@@H](CC#N)O1	
InChI=1S/C5H5NO3/c6-2-1-4-3-8-5(7)9-4/h4H,1,3H2	InChI=1S/C5H5NO3/c6-2-1-4-3-8-5(7)9-4/h4H,1,3H2/t4-/m1/s1
