19
gdb 110120	1.95443	1.4196	1.06443	4.2099	77.66	-0.2251	0.0261	0.2512	1239.0612	0.15805	-419.177895	-419.167934	-419.16699	-419.213219	34.999	
C	 0.0460196757	 1.2328485768	-0.4865359316	-0.318245
N	-0.2079631154	 0.203609737	 0.5221479214	-0.282638
C	-1.4541524697	-0.4670695752	 0.3367629631	-0.019367
C	-1.6302786219	-1.6120262479	-0.6203545894	 0.090062
O	-0.5090979865	-1.9780302111	-1.3327751936	-0.232386
C	-0.5104081715	-3.3369761138	-1.7518124507	-0.243384
C	-1.6565963685	-1.8711402773	 0.9057703686	-0.287443
C	-0.5462365142	-2.5459257686	 1.5072553329	 0.311062
N	 0.3569487043	-3.091579466	 1.9841164367	-0.354881
H	 1.0133234738	 1.6989059563	-0.281048756	 0.125616
H	 0.049385334	 0.8540449787	-1.5196656957	 0.117411
H	-0.7204645093	 2.0123228883	-0.4105730257	 0.120516
H	 0.5514681725	-0.4683648718	 0.5281174395	 0.243538
H	-2.3109703153	 0.1924049265	 0.4535180528	 0.110867
H	-2.5825704734	-1.7478850725	-1.1362211586	 0.09731
H	 0.4088804186	-3.4913736298	-2.3194271171	 0.138832
H	-0.5249515005	-4.0192022667	-0.8936749289	 0.135845
H	-1.3738392536	-3.549264899	-2.397898557	 0.112326
H	-2.6158075393	-2.0883147138	 1.3632632793	 0.13496
71.2373	98.002	108.1227	137.7758	165.5117	206.4586	229.6031	255.9597	340.526	392.3338	421.5721	633.0941	649.0062	670.1347	711.1953	764.8403	791.4171	894.5964	978.153	1026.2553	1047.0776	1068.3151	1117.2034	1126.271	1153.0464	1161.1336	1182.6444	1202.5139	1254.2957	1281.4135	1344.3601	1362.9905	1401.2658	1458.1134	1485.2005	1488.4496	1489.7841	1503.5775	1508.8388	1533.8815	2344.4783	2991.1648	3002.2949	3066.2815	3071.6298	3085.6311	3111.5581	3135.7581	3137.1825	3170.8205	3543.1618
CNC1C(OC)C1C#N	CN[C@H]1[C@@H](OC)[C@H]1C#N	
InChI=1S/C6H10N2O/c1-8-5-4(3-7)6(5)9-2/h4-6,8H,1-2H3	InChI=1S/C6H10N2O/c1-8-5-4(3-7)6(5)9-2/h4-6,8H,1-2H3/t4-,5+,6-/m0/s1
