25
gdb 120299	3.06646	0.89448	0.80862	0.2494	93.8	-0.2381	0.0874	0.3254	1605.5911	0.228612	-352.341253	-352.331193	-352.330248	-352.376399	38.213	
C	-0.1198399243	 1.5497065917	-0.0426332552	-0.381568
C	-0.1496566453	 0.0301282415	-0.2248988853	-0.151813
C	 0.9535792815	-0.4872573518	-1.1586736863	-0.209649
C	 0.9288700467	-1.9954789024	-1.314766373	-0.04202
C	 0.0243171214	-2.7665699729	-2.2484032212	-0.111679
C	-0.1380168308	-2.0492577124	-3.5937762163	-0.225886
C	 1.412738146	-2.0705507855	-3.7745074743	-0.283061
C	 1.5544757999	-2.7994900084	-2.4258243013	 0.323503
C	 2.5399667271	-3.9066404717	-2.1782488582	-0.495595
H	 0.8347592518	 1.8791515636	 0.3831394032	 0.111921
H	-0.2473116601	 2.0661517691	-1.0008204667	 0.112041
H	-0.9168941576	 1.8895008759	 0.6263217655	 0.109215
H	-0.053284819	-0.4585549185	 0.7538410104	 0.090996
H	-1.1261544401	-0.2776240977	-0.6201584497	 0.099213
H	 0.8559973679	 0.0056780432	-2.1324662884	 0.095538
H	 1.9332002582	-0.1811175777	-0.7650438633	 0.089163
H	 1.0320072176	-2.5108078115	-0.3590467694	 0.073613
H	-0.6326372644	-3.5472790009	-1.8799793342	 0.073976
H	-0.6462948471	-2.6637549279	-4.3401425711	 0.09904
H	-0.6248358957	-1.0683998722	-3.5719478604	 0.093165
H	 1.7171551223	-2.7009127489	-4.6143789243	 0.09658
H	 1.9235624837	-1.1066246736	-3.8706613292	 0.091252
H	 3.5654730544	-3.5213161526	-2.1113168137	 0.116124
H	 2.324843048	-4.4291900653	-1.2399602964	 0.114252
H	 2.5206542477	-4.6482981334	-2.9858774613	 0.111677
60.5867	85.5241	122.9791	201.8538	216.378	235.7245	259.8915	278.8732	307.8392	357.6498	465.202	545.9631	617.9869	716.7025	755.9681	787.0741	800.555	879.6428	885.2057	902.782	940.8622	949.1812	961.6949	992.354	1004.1213	1048.5763	1066.7581	1096.8979	1113.5526	1133.1154	1149.5162	1166.6163	1219.9422	1235.1303	1245.9036	1251.9748	1277.2154	1302.2198	1306.6525	1330.0521	1351.9799	1388.4	1411.9535	1414.9672	1470.3415	1477.8314	1485.365	1489.7032	1495.036	1499.0948	1499.8279	1509.5715	1512.7519	3007.538	3013.6093	3016.9821	3027.353	3038.877	3042.4605	3046.6385	3064.4829	3069.0819	3085.5719	3088.9512	3093.4603	3098.9521	3102.304	3105.9252	3163.4722
CCCC1C2CCC12C	CCC[C@H]1[C@H]2CC[C@@]12C	
InChI=1S/C9H16/c1-3-4-7-8-5-6-9(7,8)2/h7-8H,3-6H2,1-2H3	InChI=1S/C9H16/c1-3-4-7-8-5-6-9(7,8)2/h7-8H,3-6H2,1-2H3/t7-,8+,9-/m0/s1
