19
gdb 128833	5.61938	0.678	0.65604	2.3463	78.79	-0.2346	0.0238	0.2585	1732.0149	0.160492	-419.2186	-419.209468	-419.208524	-419.254293	32.037	
C	 0.0069318462	 1.3830771087	 0.086115244	-0.230537
O	 0.0391521109	-0.0236125917	 0.0362487075	-0.228303
C	 0.6199059087	-0.5182135373	-1.147360872	-0.04057
C	 0.584774051	-2.0489819235	-1.0888947545	-0.33511
C	 1.1921802821	-2.6859745427	-2.2979010275	 0.359289
C	 0.6678689218	-3.0220733288	-3.5330481337	-0.296447
C	 1.7548779712	-3.5484497714	-4.2616985826	-0.001723
N	 2.877815696	-3.547834825	-3.5492065102	-0.230236
N	 2.5095209295	-3.0168018015	-2.3668952199	-0.242433
H	 1.0184550487	 1.8171043541	 0.0414019681	 0.105044
H	-0.5840401002	 1.807990984	-0.740599348	 0.106374
H	-0.4570075414	 1.6663689166	 1.0338878502	 0.129132
H	 0.0704376312	-0.1626929427	-2.0347495727	 0.096342
H	 1.660228295	-0.1641400102	-1.2506208546	 0.087086
H	 1.1042418841	-2.3730229247	-0.1796930769	 0.113664
H	-0.4564432309	-2.3683254851	-0.9858156315	 0.130216
H	-0.3558619404	-2.9064261388	-3.8513956458	 0.100137
H	 1.764113102	-3.9319965283	-5.271562176	 0.108972
H	 3.1989501345	-2.9248926617	-1.639347254	 0.269101
29.2849	78.8697	91.932	106.8993	230.8969	252.5204	326.5044	334.1195	445.301	530.9463	675.7839	696.3802	754.2089	793.8737	806.6349	895.0542	938.1871	994.5916	1036.5907	1040.8524	1055.0179	1064.1551	1138.61	1162.1841	1179.5227	1221.6311	1226.014	1239.7947	1289.6561	1305.2493	1329.0484	1371.9719	1416.0353	1440.9931	1481.5302	1486.1852	1488.9671	1496.5619	1504.8692	1531.2199	1605.0398	2951.9819	2972.6538	2985.5925	3015.3543	3044.5896	3095.3085	3115.7813	3242.5885	3265.9959	3664.1388
COCCC1=CC=NN1	COCCc1ccn[nH]1	
InChI=1S/C6H10N2O/c1-9-5-3-6-2-4-7-8-6/h2,4H,3,5H2,1H3,(H,7,8)	InChI=1S/C6H10N2O/c1-9-5-3-6-2-4-7-8-6/h2,4H,3,5H2,1H3,(H,7,8)
