20
gdb 126523	5.65011	0.7449	0.69889	2.9267	83.6	-0.2457	0.0014	0.2472	1696.1323	0.170289	-403.168898	-403.159402	-403.158458	-403.204136	34.029	
C	 0.1413291833	 1.6040206727	 0.0782747442	-0.383421
C	 0.0642670537	 0.0764197211	 0.0523632367	-0.161489
C	 0.5777938756	-0.5156331285	-1.2753099148	-0.304178
C	 0.5256093226	-2.0050143799	-1.3139968996	 0.454317
C	-0.1985452655	-2.903353665	-2.0335083398	-0.43011
C	 0.2369195619	-4.1729166513	-1.5514364039	 0.394776
C	-0.2087511611	-5.5357290958	-1.9751377919	-0.49409
N	 1.1489350915	-4.0394481677	-0.6170575907	-0.203544
O	 1.3353503017	-2.6641563173	-0.4631919156	-0.219884
H	 1.1727027565	 1.9515520116	-0.0477095481	 0.118483
H	-0.4575635162	 2.0469089974	-0.7254683316	 0.114822
H	-0.2300423512	 2.0012532532	 1.0276009898	 0.117917
H	 0.6503578441	-0.3447021267	 0.8761863361	 0.122116
H	-0.9704368915	-0.2502315226	 0.2103118166	 0.104658
H	-0.0135537657	-0.1286814234	-2.1117630352	 0.114287
H	 1.6125990141	-0.188440057	-1.4390061886	 0.124533
H	-0.9318090529	-2.6976992231	-2.7960658458	 0.10985
H	-0.0187630542	-5.69614837	-3.0415116313	 0.136031
H	 0.3259193439	-6.2987638069	-1.4063783179	 0.149155
H	-1.2836009706	-5.6653804207	-1.8110068685	 0.135771
45.8116	85.3601	99.0116	136.2732	230.2021	245.4029	268.689	311.3179	375.9933	414.9264	618.7807	666.4894	702.28	746.3768	774.3908	811.4301	870.3395	898.2333	944.54	984.4356	1025.1128	1043.9984	1048.9614	1067.0462	1093.7559	1111.0944	1158.3291	1243.2069	1302.3136	1307.325	1332.9767	1381.6275	1406.294	1413.8979	1452.0953	1473.5088	1482.7009	1482.8	1493.6055	1499.2236	1510.1963	1534.8632	1646.4438	3026.2039	3030.468	3040.923	3041.6455	3066.7131	3084.8317	3097.087	3103.1436	3106.883	3139.1487	3269.3586
CCCC1=CC(C)=NO1	CCCc1cc(C)no1	
InChI=1S/C7H11NO/c1-3-4-7-5-6(2)8-9-7/h5H,3-4H2,1-2H3	InChI=1S/C7H11NO/c1-3-4-7-5-6(2)8-9-7/h5H,3-4H2,1-2H3
