21
gdb 114429	3.74418	1.27518	1.14934	1.4349	81.17	-0.2243	0.0884	0.3127	1160.8466	0.18427	-387.066029	-387.058273	-387.057329	-387.098228	31.23	
C	 0.002866224	 1.5947619132	-0.0011145444	-0.37932
C	-0.0955703816	 0.0661078501	-0.0281262737	-0.194113
C	 0.6550411504	-0.5533793348	-1.1988694706	 0.152775
O	 2.0563606385	-0.2188899357	-1.1141796968	-0.284826
C	 2.7659293407	-1.2902125728	-1.6961745281	 0.11499
C	 2.7339585045	-2.6479154167	-1.0190665967	-0.097327
C	 1.4904134042	-2.7294362048	-0.1364180854	-0.236935
C	 0.6670240459	-2.0830485802	-1.3029440984	-0.088462
C	 1.8716068986	-2.3418820454	-2.2519143215	-0.132057
H	 1.0463427124	 1.9106464896	 0.0763374802	 0.137043
H	-0.4132313014	 2.0340179259	-0.9147635988	 0.11029
H	-0.5466673043	 2.0099583314	 0.8491548203	 0.107212
H	 0.2907589089	-0.3464852096	 0.9101589953	 0.102241
H	-1.1471867855	-0.2401739816	-0.1013428656	 0.091546
H	 0.2513832039	-0.1378878403	-2.1398790069	 0.059726
H	 3.6724252565	-0.9866382021	-2.2062674499	 0.09817
H	 3.6184562951	-3.2712479363	-0.9470317891	 0.08037
H	 1.1856023363	-3.7650200989	 0.0324142547	 0.101236
H	 1.5140638329	-2.2024394855	 0.8224192275	 0.099912
H	-0.2980066317	-2.5305544627	-1.5382934067	 0.071235
H	 1.8706187716	-2.7437909028	-3.2563036252	 0.086297
95.4661	147.3411	187.5005	244.6962	327.0401	401.7385	470.6696	501.3252	628.1821	726.2977	745.8693	771.1867	789.9414	816.6909	837.885	899.5693	916.6506	948.7823	966.6493	1000.8966	1009.719	1018.415	1027.0912	1047.8988	1064.3462	1104.4765	1112.4943	1132.8326	1141.3631	1169.5684	1202.1581	1227.9342	1274.7695	1287.2139	1297.391	1314.9313	1329.925	1364.5507	1403.1093	1407.8528	1414.9908	1475.0686	1495.8337	1498.1954	1509.699	2937.1093	3026.6014	3036.211	3051.54	3071.5016	3101.2745	3103.903	3121.0181	3123.9807	3168.147	3186.5401	3201.3387
CCC1OC2C3CC1C23	CC[C@H]1O[C@H]2[C@H]3C[C@@H]1[C@@H]23	
InChI=1S/C8H12O/c1-2-6-4-3-5-7(4)8(5)9-6/h4-8H,2-3H2,1H3	InChI=1S/C8H12O/c1-2-6-4-3-5-7(4)8(5)9-6/h4-8H,2-3H2,1H3/t4-,5-,6+,7+,8-/m0/s1
