20
gdb 91262	2.82439	1.45366	1.17389	3.1605	79.68	-0.252	0.0313	0.2833	1123.6641	0.172691	-403.170608	-403.162547	-403.161603	-403.203512	31.411	
C	 0.1665983447	 1.6158341723	 0.0757111577	-0.407353
C	 0.1112773875	 0.0975737974	 0.0322809834	 0.025366
C	 1.0622703505	-0.6743095855	-0.9318147785	-0.264322
C	 1.3697268542	-1.6957267453	 0.2057701985	-0.03079
C	 2.8137744926	-1.8175912522	 0.6749203415	-0.317702
C	 3.0075052217	-0.5945668891	 1.5523652384	 0.403537
N	 4.1160376852	-0.1402748472	 1.9490849583	-0.537771
O	 1.7904157395	-0.04926783	 1.8715680959	-0.247161
C	 0.7054031222	-0.7159641987	 1.2136582652	 0.079295
H	 1.1817652151	 1.9646821018	 0.2839029015	 0.128967
H	-0.1505190105	 2.0406970417	-0.8826616019	 0.115137
H	-0.4908089689	 2.0176703079	 0.8542357846	 0.117567
H	-0.9205329755	-0.2383272761	-0.1217590586	 0.076525
H	 0.6150949743	-1.077833371	-1.8425255061	 0.103425
H	 1.9438117866	-0.0888523288	-1.2119421221	 0.109511
H	 0.8584043078	-2.6508803647	 0.0857715087	 0.079493
H	 2.9709000498	-2.7164727672	 1.2814914341	 0.130437
H	 3.5506695414	-1.8326392623	-0.1304865303	 0.136163
H	 3.9751567297	 0.6814466112	 2.5394736307	 0.220152
H	 0.0187551121	-1.0848007341	 1.980204239	 0.079522
75.8368	88.2378	206.5812	229.5688	339.1039	347.2785	418.4356	522.6272	534.3836	593.7346	667.5647	734.4863	794.5628	835.8257	867.7699	889.0993	894.6961	908.0825	937.0613	970.4369	990.2839	1033.3148	1073.1392	1103.0195	1122.3507	1132.4457	1173.344	1195.5876	1222.2611	1247.6513	1263.6699	1288.8899	1299.7723	1305.1327	1334.7741	1368.1768	1381.9036	1413.4293	1469.5763	1488.6263	1493.1412	1499.0011	1773.5855	3033.6181	3040.1075	3052.134	3054.7343	3070.8986	3097.2625	3103.8976	3114.5585	3116.0465	3120.3324	3470.3599
CC1CC2CC(=N)OC12	C[C@H]1C[C@H]2C[C]([NH])O[C@@H]12	
InChI=1S/C7H11NO/c1-4-2-5-3-6(8)9-7(4)5/h4-5,7-8H,2-3H2,1H3	InChI=1S/C7H11NO/c1-4-2-5-3-6(8)9-7(4)5/h4-5,7-8H,2-3H2,1H3/t4-,5-,7-/m0/s1
