21
gdb 50359	2.76045	1.227	1.20861	3.1007	81.68	-0.2428	-0.0169	0.226	1166.3868	0.183865	-387.103406	-387.095046	-387.094101	-387.138331	31.712	
O	-0.5313389967	 0.4404447655	-0.2426370177	-0.256667
C	-0.1157020329	 1.5710089775	-0.1968294268	 0.153697
C	 1.3326098535	 1.9363063159	 0.0450197754	-0.070593
C	 1.9394118363	 2.7730240491	-1.1212203763	-0.259136
C	 1.7999434456	 4.2549450388	-0.7377238634	 0.007588
C	 0.4227729446	 4.9388323117	-0.9892705045	-0.228087
C	 0.1595958486	 4.9866009401	 0.542974959	-0.227874
C	 1.5332710154	 4.3004280438	 0.8067060646	 0.007456
C	 1.5180428934	 2.8438302101	 1.298037675	-0.259313
H	-0.8114757932	 2.429597498	-0.3368024024	 0.07506
H	 1.8585653974	 0.9854728371	 0.1639621622	 0.091023
H	 2.9989279529	 2.5100126377	-1.2092809996	 0.108533
H	 1.478406294	 2.5423910819	-2.088113193	 0.108569
H	 2.6489156572	 4.8392441967	-1.0987541275	 0.067582
H	 0.4938465025	 5.9209898786	-1.4623383907	 0.101286
H	-0.2865145891	 4.3422658408	-1.5705028586	 0.09756
H	 0.0818556587	 5.9965812941	 0.952106508	 0.101297
H	-0.7105003063	 4.421380369	 0.8898394191	 0.097508
H	 2.2191137075	 4.9107241979	 1.3980236121	 0.067581
H	 0.7540097881	 2.6652554138	 2.0628853047	 0.108416
H	 2.4818634427	 2.5954887318	 1.7549928604	 0.108516
10.4156	107.1713	124.1371	264.7339	288.5798	344.8155	346.511	437.7619	590.5861	718.9801	720.2067	738.234	805.5687	831.0775	849.6939	893.6336	924.5907	931.6917	951.3904	960.493	999.8869	1018.7863	1082.9105	1090.4206	1099.9049	1163.4666	1174.218	1178.4662	1212.465	1240.1789	1247.6369	1259.9471	1266.2556	1281.9792	1318.0303	1328.6219	1336.7601	1342.6727	1354.046	1439.1814	1475.0527	1482.1088	1488.3121	1498.2579	1824.7903	2877.2971	3037.3939	3038.1833	3051.7307	3056.7796	3068.9468	3072.9046	3078.9954	3080.8165	3088.8164	3096.2973	3114.4224
O=CC1CC2CCC2C1	O=C[C@H]1C[C@H]2CC[C@H]2C1	
InChI=1S/C8H12O/c9-5-6-3-7-1-2-8(7)4-6/h5-8H,1-4H2	InChI=1S/C8H12O/c9-5-6-3-7-1-2-8(7)4-6/h5-8H,1-4H2/t6-,7+,8-
