18
gdb 85209	2.4704	1.14316	0.83574	5.2299	73.6	-0.2462	-0.0219	0.2243	1352.7044	0.145853	-439.119619	-439.110177	-439.109233	-439.15491	33.278	
C	-0.0255119948	 1.5992620499	-0.1814600785	-0.39731
C	-0.0124863727	 0.0925145276	 0.0274078003	 0.041981
N	 0.926033867	-0.6544077275	-0.8244632764	-0.334321
C	 1.6632129578	-1.1978717257	 0.1943552381	 0.440747
O	 2.6292806097	-1.9154399617	 0.221614403	-0.367145
C	 0.7690007966	-0.504578724	 1.2551006226	-0.18929
C	 1.4796182381	 0.4286875831	 2.2372014176	-0.302066
C	 2.3439662858	-0.3508852008	 3.2157473146	 0.149401
O	 2.3068098755	-0.1988899657	 4.4098757409	-0.244433
H	 0.9825637866	 2.0206876978	-0.141657682	 0.12641
H	-0.454361557	 1.8455515246	-1.1584999737	 0.12244
H	-0.6395988903	 2.0882377118	 0.5815592528	 0.130486
H	-1.0340728819	-0.3007829427	-0.0361117542	 0.091921
H	 0.9855495838	-0.7697475005	-1.825875508	 0.25108
H	 0.1634959504	-1.2358651569	 1.7991224323	 0.113295
H	 2.1475746502	 1.1080473556	 1.6902610909	 0.126613
H	 0.7721751879	 1.0358511075	 2.8098470532	 0.123695
H	 3.0284183173	-1.0843227723	 2.7402845063	 0.116496
62.1858	77.5425	80.7773	151.2523	192.7532	234.517	298.6513	356.0255	411.0919	451.2669	495.9851	550.6071	691.2197	732.6444	790.8546	846.9045	859.1485	901.6361	1021.9497	1043.7565	1069.8758	1077.7043	1135.529	1146.9179	1181.2901	1189.9711	1224.9735	1277.7426	1307.4126	1358.6066	1385.5418	1393.9475	1414.2223	1428.9136	1463.4346	1489.3317	1499.8003	1830.9407	1882.5045	2926.6466	3021.4477	3030.0442	3038.9602	3070.7951	3094.804	3103.9637	3121.5923	3604.5199
CC1NC(=O)C1CC=O	C[C@H]1NC(=O)[C@H]1CC=O	
InChI=1S/C6H9NO2/c1-4-5(2-3-8)6(9)7-4/h3-5H,2H2,1H3,(H,7,9)	InChI=1S/C6H9NO2/c1-4-5(2-3-8)6(9)7-4/h3-5H,2H2,1H3,(H,7,9)/t4-,5+/m1/s1
