23
gdb 120626	3.10563	0.77041	0.69008	0.8984	83.07	-0.2565	0.0791	0.3356	1740.9185	0.202653	-425.414286	-425.403118	-425.402174	-425.451497	39.774	
C	 0.0817407022	 1.2110360622	-0.7165335506	-0.379544
C	-0.0585221988	 0.1585499978	 0.3921871215	-0.250841
C	-1.4148708136	-0.528351608	 0.3864840408	 0.401665
C	-2.5874670526	 0.3352373349	 0.8112842884	-0.460788
O	-1.6805822921	-1.3474266567	-0.7697831099	-0.305655
C	-1.5601199974	-1.9944173519	 0.507175213	-0.003283
C	-0.4492810431	-3.0008983952	 0.6745004737	-0.224715
C	-0.7458465635	-4.2916148857	-0.0848849688	-0.06488
O	 0.327120598	-5.1887406886	 0.1571077762	-0.422753
H	 1.0893458861	 1.6369407612	-0.7184519648	 0.112366
H	-0.0993240357	 0.7564017091	-1.6948647072	 0.134486
H	-0.6248215663	 2.03723977	-0.5917827302	 0.116176
H	 0.7334780746	-0.5845768731	 0.2741018752	 0.105652
H	 0.09261765	 0.6244456665	 1.374310544	 0.09723
H	-2.680661996	 1.2170419325	 0.1698637911	 0.127357
H	-3.5220813801	-0.2270743194	 0.7459469998	 0.124667
H	-2.4600365038	 0.6822593656	 1.8425881742	 0.118175
H	-2.5209702196	-2.3406980852	 0.9002639072	 0.077115
H	 0.504533439	-2.6056755058	 0.3176022969	 0.11512
H	-0.3296189912	-3.2377103224	 1.7391269129	 0.108341
H	-1.7050403248	-4.7146724366	 0.2570925348	 0.082583
H	-0.8501404961	-4.063479396	-1.1560714866	 0.105565
H	 0.1764415349	-5.9836554652	-0.3623588214	 0.285961
45.4698	62.066	86.4398	116.3555	169.7171	207.8347	226.2129	261.8563	274.5227	300.2404	335.8812	379.7986	463.6956	536.2604	571.4738	689.769	773.0097	789.9568	820.7294	907.6544	954.6711	993.8597	1003.5739	1021.9566	1057.0023	1074.5188	1099.7489	1130.9169	1137.3571	1147.4184	1225.7792	1245.9267	1253.5714	1303.2188	1316.8495	1328.3866	1341.3578	1383.6609	1405.5862	1412.4803	1460.0122	1468.4335	1476.4621	1480.3513	1489.6019	1504.0043	1506.2524	1511.9266	1529.1622	2963.0225	3007.5329	3031.6439	3037.6133	3041.1816	3042.4708	3055.742	3090.9779	3102.1489	3109.6187	3114.8266	3120.1996	3122.4246	3831.894
CCC1(C)OC1CCO	CC[C@@]1(C)O[C@H]1CCO	
InChI=1S/C7H14O2/c1-3-7(2)6(9-7)4-5-8/h6,8H,3-5H2,1-2H3	InChI=1S/C7H14O2/c1-3-7(2)6(9-7)4-5-8/h6,8H,3-5H2,1-2H3/t6-,7+/m0/s1
