13
gdb 130765	5.2597	1.10533	0.95354	5.2921	61.59	-0.2635	-0.0052	0.2582	1152.9637	0.089532	-489.865905	-489.858821	-489.857877	-489.898167	25.58	
O	 0.0939365398	 0.105601904	 0.0254059569	-0.357338
C	 0.0335910995	 1.2882425162	 0.0017854781	 0.519814
O	-0.987816775	 2.0555173029	-0.4412724434	-0.229539
N	-0.6392583171	 3.4343504251	-0.3092230513	-0.208594
C	 0.536129773	 3.398233748	 0.2170221732	 0.505686
O	 1.0284344482	 2.155629482	 0.4336989781	-0.229539
N	 1.2830711049	 4.4591457874	 0.6421873396	-0.160214
C	 2.4509278474	 4.8997968952	-0.1360679304	-0.228805
C	 1.2073782372	 5.7202796802	-0.0911053745	-0.218956
H	 3.3112037717	 5.172434884	 0.464906917	 0.149154
H	 2.6704356988	 4.3641278843	-1.054939104	 0.149506
H	 0.578782718	 5.739361109	-0.9756783415	 0.161895
H	 1.1623113935	 6.6021158016	 0.5383453922	 0.146929
72.6088	131.2152	186.4084	241.2132	380.1901	422.6831	562.7992	611.0578	721.8527	756.893	780.5839	818.595	873.3289	907.5487	923.0833	977.575	1008.3414	1051.2165	1124.5625	1138.7609	1146.6499	1178.5983	1192.8398	1267.2834	1457.1158	1492.9999	1518.9581	1678.8076	1954.7041	3129.3955	3136.209	3221.4831	3234.4852
O=C1ON=C(O1)N1CC1	O=c1onc(o1)N1CC1	
InChI=1S/C4H4N2O3/c7-4-8-3(5-9-4)6-1-2-6/h1-2H2	InChI=1S/C4H4N2O3/c7-4-8-3(5-9-4)6-1-2-6/h1-2H2
