18
gdb 48332	2.20665	1.35066	1.05234	4.8992	76.2	-0.2635	-0.0403	0.2231	1195.2661	0.146318	-401.962767	-401.953616	-401.952672	-401.997691	32.503	
O	-0.5361278163	 0.127374228	-0.2761653523	-0.245825
C	-0.2179674636	 1.1976681483	 0.1717563731	 0.110184
C	 1.1428160545	 1.8348232394	-0.0170188291	 0.240086
C	 1.5410643905	 2.6688178368	 1.2142338346	-0.428406
C	 1.7751161459	 1.8518422424	 2.4053525875	 0.268407
N	 1.9562737473	 1.1899503355	 3.3350082334	-0.298741
C	 2.2608893678	 0.916778967	-0.5811616352	-0.268241
C	 2.5689990493	 1.9712788163	-1.6767486239	-0.209753
C	 1.2328808553	 2.687043239	-1.3418333572	-0.275985
H	-0.9531096254	 1.8258497375	 0.7284774409	 0.079168
H	 2.4516942152	 3.2386419277	 0.9998996063	 0.157592
H	 0.7576868885	 3.4030787223	 1.4414388691	 0.154324
H	 3.0638297329	 0.6545248309	 0.110942531	 0.119353
H	 1.8235989834	 0.0002548151	-0.9811176047	 0.138681
H	 3.4416190599	 2.5860413552	-1.4420717727	 0.109402
H	 2.6768081702	 1.6024383876	-2.6981371394	 0.11468
H	 0.4326095533	 2.43319886	-2.0405372291	 0.126529
H	 1.2537558015	 3.7722100811	-1.2120454925	 0.108545
56.9673	73.661	90.9043	129.4135	247.8283	277.4742	314.6087	349.7881	393.022	466.5101	625.973	666.0612	737.4649	786.9043	856.7164	881.5306	898.9533	935.0957	949.158	962.1933	979.6166	1077.8018	1088.3949	1154.3914	1190.0837	1215.4146	1256.8763	1266.2508	1275.885	1277.8733	1325.8737	1327.8582	1425.3899	1460.8996	1474.649	1484.7344	1504.0239	1830.0794	2361.9992	2852.2054	3034.8946	3061.2011	3068.6899	3077.1402	3079.861	3110.0372	3124.846	3138.9752
O=CC1(CC#N)CCC1	O=CC1(CC#N)CCC1	
InChI=1S/C7H9NO/c8-5-4-7(6-9)2-1-3-7/h6H,1-4H2	InChI=1S/C7H9NO/c8-5-4-7(6-9)2-1-3-7/h6H,1-4H2
