14
gdb 20321	6.07107	1.30056	1.11984	2.299	68.03	-0.2451	0.02	0.2651	1011.9326	0.108264	-341.571974	-341.564767	-341.563822	-341.604303	26.522	
C	-0.2982167669	-0.9427770414	-0.8077888641	-0.458687
C	-0.0756251593	 0.0580371214	-0.1812440354	 0.307693
C	 0.1877933487	 1.2840593916	 0.5661692711	-0.453188
C	 1.5068932103	 1.9306439481	 0.225825333	 0.347941
N	 2.2216916629	 2.5140219122	 1.1855169561	-0.28999
N	 3.2954861458	 3.0159111534	 0.5452329193	-0.182255
C	 3.2870201074	 2.76286501	-0.7853089557	-0.016784
C	 2.1322703809	 2.0550266918	-1.0361790064	-0.26834
H	-0.493759932	-1.8327279637	-1.3525889327	 0.195218
H	-0.6303725352	 1.994304057	 0.3808498872	 0.144017
H	 0.1744427219	 1.0829459791	 1.642977979	 0.151745
H	 3.9976415431	 3.4988161676	 1.0789416845	 0.275436
H	 4.0847268994	 3.0937472585	-1.4314439844	 0.133497
H	 1.789439153	 1.6707874545	-1.9823960216	 0.113696
32.0399	115.6575	273.8426	322.694	332.7169	463.8277	503.9512	614.4369	638.091	652.9464	685.1739	747.4217	774.3753	847.8711	942.3514	944.9434	962.7145	998.3179	1070.6096	1107.7023	1191.1601	1222.1601	1294.1164	1326.3239	1408.0898	1459.7774	1474.0443	1493.8464	1573.0202	2242.3445	3010.0828	3068.6685	3259.4284	3281.5989	3506.9591	3678.8826
C#CCC1=NNC=C1	C#CCc1n[nH]cc1	
InChI=1S/C6H6N2/c1-2-3-6-4-5-7-8-6/h1,4-5H,3H2,(H,7,8)	InChI=1S/C6H6N2/c1-2-3-6-4-5-7-8-6/h1,4-5H,3H2,(H,7,8)
