20
gdb 111360	2.0619	1.63467	1.10107	4.1057	82.23	-0.2769	0.0286	0.3055	1174.2342	0.171533	-366.005128	-365.996363	-365.995419	-366.038642	33.128	
C	 0.0483073781	 1.563889469	-0.0454222843	-0.390177
C	 0.0392495683	 0.0371648377	-0.1803555436	-0.201199
C	-1.3427805447	-0.5772093723	 0.0135621971	 0.013802
C	-1.5203036833	-2.0963787132	-0.1132802057	-0.068881
C	-0.8490316883	-2.83255843	 1.0124472904	-0.288999
C	-2.174600049	-2.1770333304	 1.2651844264	-0.050091
C	-1.9970247999	-0.6597557698	 1.4628154138	-0.191362
C	-1.197961238	-0.2390163907	 2.606400176	 0.2941
N	-0.5431178805	 0.0866591631	 3.5028658448	-0.349595
H	 1.0503652173	 1.9665525366	-0.2197428395	 0.118575
H	-0.6290088409	 2.0293905316	-0.7705193658	 0.110229
H	-0.2622062418	 1.8771158696	 0.9560347751	 0.136892
H	 0.3943385219	-0.2487736863	-1.1791169	 0.099026
H	 0.7479892124	-0.3988613411	 0.5325032073	 0.113511
H	-2.0590511576	-0.0628165395	-0.6351517068	 0.084497
H	-1.8143829276	-2.6010857382	-1.0254124099	 0.093418
H	-0.8857409613	-3.9142474407	 0.9366282523	 0.120823
H	 0.0532574543	-2.4541012394	 1.4844518352	 0.130819
H	-3.0494815243	-2.7272264282	 1.5860610005	 0.10126
H	-2.9504651851	-0.1279929176	 1.4885964666	 0.123352
97.2103	110.6855	134.9177	185.2015	214.6255	272.349	361.2948	392.7076	476.2729	555.8195	600.905	672.5509	762.8366	791.6602	806.0313	817.4802	924.5441	943.6634	969.5206	995.0109	1006.0284	1026.6638	1049.2475	1065.9017	1090.2277	1093.5079	1121.3906	1143.2912	1169.6551	1214.4158	1262.8254	1288.9653	1293.5975	1331.5446	1337.7864	1369.5599	1399.1368	1416.6877	1481.1371	1495.7117	1500.8772	1507.8234	2345.5368	3024.838	3033.8676	3048.8035	3069.3365	3090.5455	3102.7016	3113.3931	3123.4701	3183.3501	3196.1959	3211.0775
CCC1C2CC2C1C#N	CC[C@H]1[C@H]2C[C@H]2[C@H]1C#N	
InChI=1S/C8H11N/c1-2-5-6-3-7(6)8(5)4-9/h5-8H,2-3H2,1H3	InChI=1S/C8H11N/c1-2-5-6-3-7(6)8(5)4-9/h5-8H,2-3H2,1H3/t5-,6+,7+,8-/m0/s1
