20
gdb 61029	2.86095	1.16407	1.04822	4.0369	81.05	-0.2341	0.0138	0.2479	1241.4161	0.171569	-403.180948	-403.171931	-403.170987	-403.215802	32.858	
C	-0.1835645137	 1.4345364468	-0.0693352607	-0.350378
N	 0.1226383432	 0.019125101	 0.0651289842	-0.049454
C	 0.2005568965	-0.5261449952	 1.3138193645	 0.142974
O	 0.1118223727	 0.090929498	 2.3580620541	-0.35169
C	 0.1211970686	-0.7983679471	-1.1516265511	 0.015857
C	 1.2293027161	-1.8957321429	-1.1731735455	-0.280971
C	 0.4708529103	-3.1883218059	-1.0060418516	-0.057422
C	-0.8462481426	-3.016230584	-1.1053071562	-0.054975
C	-1.2181656174	-1.5779409458	-1.3650662921	-0.261457
H	 0.5517922724	 1.9283930764	-0.7146946883	 0.122494
H	-1.1811044833	 1.5892134734	-0.5003310621	 0.121961
H	-0.1540510124	 1.8783063312	 0.9253575598	 0.168594
H	 0.3594463318	-1.6183305223	 1.2845096686	 0.086398
H	 0.2827217584	-0.0927853533	-1.9685833179	 0.088138
H	 1.7682659258	-1.8800859248	-2.1297583753	 0.113869
H	 1.9828741282	-1.7233535846	-0.3978342239	 0.120453
H	 0.9700571169	-4.1381092459	-0.851040912	 0.098904
H	-1.5877587997	-3.8044223821	-1.0386580201	 0.098743
H	-2.0016367267	-1.2042721767	-0.6960995929	 0.116904
H	-1.5961084651	-1.4513985064	-2.3884998015	 0.11106
31.5436	92.309	110.7076	158.036	238.2957	323.3106	341.8834	376.2593	396.7732	447.894	616.807	719.6585	743.6313	786.9767	832.552	885.8122	930.9708	955.2945	979.5774	982.7072	1018.441	1038.4119	1058.6762	1089.4679	1131.3035	1156.7557	1175.0921	1196.7355	1236.6012	1246.4954	1309.6101	1324.574	1329.1712	1376.1435	1428.6451	1448.2294	1464.9338	1478.3323	1488.2687	1500.3809	1521.1832	1686.3523	1782.9731	2980.7475	3014.4059	3016.5191	3019.4125	3060.5118	3067.2031	3069.7507	3087.6112	3159.7465	3185.881	3210.6455
CN(C=O)C1CC=CC1	CN(C=O)[C@H]1CC=CC1	
InChI=1S/C7H11NO/c1-8(6-9)7-4-2-3-5-7/h2-3,6-7H,4-5H2,1H3	InChI=1S/C7H11NO/c1-8(6-9)7-4-2-3-5-7/h2-3,6-7H,4-5H2,1H3
