18
gdb 81109	2.49943	1.6926	1.24667	4.2378	80.92	-0.2483	-0.0064	0.242	1042.8951	0.148737	-364.798492	-364.790762	-364.789818	-364.830414	30.752	
C	-0.1893157713	 1.537716139	-0.0096167727	-0.440434
C	 0.0124014619	 0.0307022996	-0.0055429165	 0.017811
C	 1.200264719	-0.5936925899	-0.8392585368	-0.106372
C	 2.1362510788	-0.2074388528	 0.3537328258	-0.254856
C	 0.8600159022	-0.6217427176	 1.1758263305	 0.190295
C	 0.7556675394	-2.106988759	 0.7778985726	-0.127687
C	 0.9798053963	-2.0803925343	-0.5378935157	-0.096141
C	 0.6664446294	-0.2429165348	 2.5555336621	 0.149027
N	 0.5032266906	 0.0852652236	 3.6525960953	-0.349377
H	 0.7374654811	 2.1054312872	 0.1013333955	 0.125667
H	-0.6579117002	 1.8456892438	-0.950488817	 0.125056
H	-0.8594432563	 1.8319995641	 0.8049651655	 0.140439
H	-0.9445293454	-0.4750468939	-0.1570146773	 0.086003
H	 1.409104296	-0.2859871673	-1.8625740584	 0.073755
H	 3.0258854802	-0.8187304467	 0.5107009764	 0.112926
H	 2.3773427126	 0.8542884002	 0.421377385	 0.115819
H	 0.5368181269	-2.9211002657	 1.4523004943	 0.124291
H	 0.9945865686	-2.8917448657	-1.2510407284	 0.113779
124.5181	156.8969	193.8225	280.5838	297.2159	474.8716	485.7026	519.1623	534.6439	556.3414	590.7581	686.1722	716.2869	799.0323	837.1739	889.9538	904.9416	911.7938	930.9338	995.887	1039.1798	1052.3931	1067.5219	1082.4259	1113.8381	1139.083	1181.6263	1221.4735	1232.1939	1245.5939	1260.5852	1320.1679	1373.3307	1414.2497	1486.8353	1493.5384	1511.2041	1621.8733	2350.8891	3039.0543	3075.0584	3083.4955	3100.1257	3123.1745	3132.7336	3150.301	3230.8417	3258.6954
CC1C2CC1(C=C2)C#N	C[C@H]1[C@H]2C[C@@]1(C=C2)C#N	
InChI=1S/C8H9N/c1-6-7-2-3-8(6,4-7)5-9/h2-3,6-7H,4H2,1H3	InChI=1S/C8H9N/c1-6-7-2-3-8(6,4-7)5-9/h2-3,6-7H,4H2,1H3/t6-,7+,8-/m0/s1
