21
gdb 118713	3.43363	1.02826	0.91714	0.4279	78.95	-0.2549	0.0735	0.3284	1339.9749	0.182313	-424.162461	-424.153491	-424.152547	-424.196291	34.718	
O	-2.1655994296	 1.4873586709	-1.1891137836	-0.423043
C	-2.2868925193	 0.071570233	-1.2172374252	-0.067007
C	-1.5583163259	-0.4762052562	 0.006458564	-0.284323
C	-1.5222563047	-2.0038832369	 0.0439900274	 0.474389
O	-0.7811348198	-2.4734431431	-1.073972774	-0.492325
C	-1.296160733	-2.7521317372	 1.4090464719	-0.122338
C	-2.7680341801	-2.399346956	 1.7736224868	-0.236494
C	-2.8102708792	-2.8511760442	 0.2849279982	-0.087955
C	-1.8729129952	-4.0241815064	 0.7155747473	-0.230351
H	-2.6056742621	 1.8404113952	-1.9676913817	 0.284779
H	-3.3442082915	-0.2375665136	-1.1862094966	 0.086793
H	-1.847021628	-0.3549343879	-2.1292764179	 0.096755
H	-0.5241922605	-0.1033706868	-0.0151882138	 0.091497
H	-2.0105707891	-0.0481139477	 0.9030879435	 0.113351
H	 0.0692933644	-2.0217430732	-1.0752655316	 0.277004
H	-0.4212008422	-2.6883886818	 2.0596103201	 0.063451
H	-3.2477968303	-3.0828589985	 2.4774863147	 0.094572
H	-3.0170572909	-1.3652694973	 2.0115830658	 0.093916
H	-3.6849070559	-2.9099522284	-0.3651579406	 0.068633
H	-1.2673475704	-4.483623087	-0.0613994756	 0.113829
H	-2.3210133167	-4.7633256668	 1.383970991	 0.084867
81.1922	85.4943	134.9785	262.4635	275.6833	290.6605	321.2401	385.089	436.7224	440.2765	558.2864	604.8466	723.8222	794.6376	800.1745	804.4971	897.1837	901.1898	912.2696	984.7874	1000.1044	1015.3369	1024.6495	1050.8355	1071.8361	1081.3016	1092.1629	1110.9913	1154.2422	1184.3422	1185.4288	1196.8038	1224.7038	1231.3847	1244.8295	1248.3842	1262.8302	1304.3987	1342.9116	1386.5952	1456.8438	1487.6611	1502.5671	1532.9728	1542.6048	2972.0082	3011.6345	3025.3394	3070.8871	3071.4132	3088.812	3100.3128	3107.4801	3138.259	3170.6922	3807.5579	3829.3639
OCCC1(O)C2CC1C2	OCC[C@@]1(O)[C@H]2C[C@@H]1C2	
InChI=1S/C7H12O2/c8-2-1-7(9)5-3-6(7)4-5/h5-6,8-9H,1-4H2	InChI=1S/C7H12O2/c8-2-1-7(9)5-3-6(7)4-5/h5-6,8-9H,1-4H2/t5-,6+,7-
