19
gdb 41516	2.92807	1.90035	1.45923	1.2403	79.86	-0.2311	-0.0008	0.2304	942.4637	0.162891	-385.860191	-385.85359	-385.852645	-385.890795	27.979	
C	-0.0853713726	 1.4346192977	 0.0087680538	-0.138374
O	 1.3435258898	 1.6569219668	 0.147263055	-0.267813
C	 1.9886897546	 0.8498591684	-0.8207297145	 0.093381
C	 2.290400316	-0.6443604253	-0.6175643064	-0.047847
C	 2.0896954524	-1.5168550933	 0.6220137255	-0.227541
C	 0.6714873023	-2.1755638199	 0.58003085	-0.246988
C	-0.2914617442	-1.0135339631	 0.5545958055	-0.122599
C	-0.0704539663	-0.0358229282	-0.3269964548	 0.182967
C	 1.0388943658	-0.1784572327	-1.338593665	-0.203015
H	-0.5603124873	 1.6767044646	 0.9620423833	 0.110891
H	-0.4840759629	 2.0868666047	-0.7810076114	 0.093681
H	 2.671439056	 1.4107277346	-1.4521141514	 0.093078
H	 3.0998066767	-0.9696417859	-1.268366521	 0.082743
H	 2.8684794434	-2.2861846984	 0.6574695394	 0.094955
H	 2.1766292969	-0.9298203254	 1.5420556494	 0.113663
H	 0.5999906845	-2.8162121847	-0.3058973474	 0.111522
H	 0.5058247822	-2.8111132238	 1.4545944911	 0.097359
H	-0.9376758405	-0.8506816895	 1.4139480849	 0.090098
H	 0.836691643	-0.3837856066	-2.3839044561	 0.089841
187.0267	205.202	316.6238	378.6108	452.3664	495.1928	562.1363	661.5388	698.4784	729.8082	749.4053	780.7292	835.4124	864.8079	883.1017	914.027	925.7571	965.4757	1007.9995	1020.9414	1032.8451	1056.9427	1074.1605	1094.9932	1103.8076	1132.1907	1190.6023	1200.4902	1205.8373	1226.0446	1283.3882	1311.771	1324.1737	1349.8437	1353.6563	1374.6515	1399.157	1486.9132	1489.9991	1509.5535	1710.0388	3000.8416	3039.8537	3042.4759	3080.1196	3091.8544	3108.8657	3123.2186	3149.4729	3153.3987	3165.0375
C1OC2C3CCC=C1C23	C1O[C@H]2[C@H]3CC[CH][C]1[C@@H]23	
InChI=1S/C8H10O/c1-2-5-4-9-8-6(3-1)7(5)8/h2,6-8H,1,3-4H2	InChI=1S/C8H10O/c1-2-5-4-9-8-6(3-1)7(5)8/h2,6-8H,1,3-4H2/t6-,7+,8-/m0/s1
