20
gdb 109348	2.94848	1.27233	0.95787	1.864	81.44	-0.2136	0.0233	0.2369	1249.1806	0.172055	-403.121478	-403.112908	-403.111964	-403.154885	32.561	
O	 0.0494338229	 1.4148864348	 0.0401030356	-0.415512
C	-0.0102114288	 0.0032107347	-0.0339216704	-0.157559
C	-1.4391925659	-0.4626298873	-0.0005233569	 0.272351
C	-2.4890262006	 0.3565340915	 0.0728383721	-0.150953
C	-3.8963512817	-0.1854303633	 0.0969036849	-0.253213
C	-3.9909195686	-1.4830606178	-0.7144056809	-0.154398
N	-2.9816166821	-2.4731496994	-0.2926111372	-0.098202
C	-1.8841506864	-2.7313424838	-1.2243697067	-0.247161
C	-1.6539378589	-1.9368606456	 0.0194330229	-0.104516
H	 0.9734470704	 1.6765373844	 0.007789825	 0.289995
H	 0.465541198	-0.3712597748	-0.9576685012	 0.096227
H	 0.5391267964	-0.4646056951	 0.8029981988	 0.092793
H	-2.3323464504	 1.4286402776	 0.1083923745	 0.107947
H	-4.2188963207	-0.3642599166	 1.1324867477	 0.116881
H	-4.5975567097	 0.547375219	-0.3167440524	 0.103502
H	-4.9780968494	-1.9436790624	-0.5953719807	 0.10077
H	-3.8751134489	-1.233238151	-1.778434989	 0.093159
H	-1.5487888733	-3.7636688002	-1.2910494136	 0.109583
H	-1.8850490559	-2.186602289	-2.1673726814	 0.107285
H	-1.1683032964	-2.4513385457	 0.8509661388	 0.09102
70.3154	124.4241	177.2489	206.557	247.9949	266.9901	371.809	417.4815	509.5717	518.0917	566.1348	675.2657	728.2678	793.9778	850.817	875.2044	920.3647	958.8457	995.8912	1032.1318	1053.6351	1062.35	1081.5061	1096.1151	1110.2027	1113.9219	1159.0198	1175.8752	1225.0363	1232.4809	1251.9724	1258.5441	1314.9677	1327.7617	1355.9965	1388.5197	1415.9526	1463.4724	1476.6934	1493.8936	1509.9853	1516.9594	1734.1233	2937.9117	2952.1548	2997.2795	3010.5608	3053.0617	3066.6163	3076.9126	3086.9791	3173.8058	3198.8787	3842.6654
OCC1=CCCN2CC12	OCC1=CCCN2C[C@@H]12	
InChI=1S/C7H11NO/c9-5-6-2-1-3-8-4-7(6)8/h2,7,9H,1,3-5H2	InChI=1S/C7H11NO/c9-5-6-2-1-3-8-4-7(6)8/h2,7,9H,1,3-5H2/t7-,8?/m0/s1
