14
gdb 26603	2.38356	1.90191	1.06476	3.5126	67.87	-0.2406	-0.0526	0.1879	1037.83	0.101208	-473.902702	-473.894832	-473.893888	-473.935624	28.566	
C	-0.0361876834	 1.5465445146	 0.0276691732	-0.487448
C	-0.0411035771	 0.0445800282	 0.0219534667	-0.007236
C	-1.1634474423	-0.723198315	-0.1058305865	 0.364078
O	-2.3733324998	-0.1612396338	-0.2387998641	-0.399992
N	-1.1703769422	-2.1001293087	-0.1113421947	-0.366846
C	-0.0267088417	-2.6682648621	 0.0142207245	 0.143602
O	 1.1432006602	-2.064703325	 0.1467422929	-0.198209
C	 1.2229466866	-0.6266464372	 0.1605832734	 0.387664
O	 2.3162325744	-0.1532702947	 0.2841133923	-0.330395
H	 0.5869157581	 1.9344279309	-0.784937201	 0.144526
H	-1.0468789017	 1.9400025857	-0.0835778794	 0.140819
H	 0.3925045096	 1.9284178494	 0.9601039003	 0.144528
H	-3.0090383984	-0.8862076003	-0.3121720576	 0.308857
H	 0.0600553976	-3.751174932	 0.02016759	 0.15605
61.5211	119.0486	178.2866	268.6675	271.8082	373.8179	494.553	507.3584	517.1681	524.3476	570.632	670.4794	724.315	785.5909	851.6853	896.2644	972.1642	1008.9259	1063.6953	1091.7096	1219.6048	1291.6236	1310.1257	1387.5252	1413.8797	1440.404	1481.0815	1488.0117	1626.8104	1705.4762	1860.6479	3042.5395	3092.6561	3150.1953	3187.0076	3775.6128
CC1=C(O)N=COC1=O	Cc1c(O)ncoc1=O	
InChI=1S/C5H5NO3/c1-3-4(7)6-2-9-5(3)8/h2,7H,1H3	InChI=1S/C5H5NO3/c1-3-4(7)6-2-9-5(3)8/h2,7H,1H3
