20
gdb 24111	4.57657	0.88175	0.83602	1.8567	86.02	-0.1938	0.0483	0.2421	1447.4614	0.173046	-366.037535	-366.029134	-366.02819	-366.071703	32.134	
C	-0.0708203178	 1.575567525	-0.0803987969	-0.355795
C	-0.1716102628	 0.0660517229	-0.2593047957	 0.044995
C	-0.1649272255	-0.838883677	 0.9426985594	-0.24626
C	-1.4301529685	-0.6625323447	 0.1361151571	-0.276228
C	 1.3310976522	 2.0821975625	 0.0660362104	 0.319902
C	 2.0247877737	 2.5319587177	 1.1688473611	-0.224809
C	 3.3450840213	 2.8655179829	 0.7534315964	-0.135774
C	 3.4248901815	 2.6111791831	-0.5943338006	-0.100392
N	 2.2007600813	 2.1367982283	-0.9999535009	-0.283866
H	-0.5684721689	 2.0733375312	-0.9256461849	 0.098494
H	-0.6327021024	 1.865841133	 0.8141447952	 0.109618
H	 0.3413359312	-0.3144971881	-1.1394728672	 0.073365
H	 0.3602722364	-1.7853134156	 0.8785962309	 0.110428
H	-0.1163324768	-0.3729645414	 1.9216066029	 0.112579
H	-2.2343143466	-0.0801014834	 0.5748148068	 0.109111
H	-1.7691084104	-1.4878538001	-0.4805491407	 0.108876
H	 1.6211856044	 2.6129179896	 2.1671650444	 0.083386
H	 4.140508881	 3.2521087397	 1.3719323279	 0.088368
H	 4.2348989256	 2.7303570296	-1.2958294911	 0.110047
H	 1.9669854109	 1.8795667146	-1.9430732647	 0.253956
41.7318	62.1634	112.4559	262.0069	306.3872	349.2526	401.4287	476.6116	629.2042	651.9949	702.0686	731.9823	772.5257	789.262	804.5308	840.9997	849.3468	889.4306	896.3659	948.061	983.2364	991.7326	1052.5552	1056.2481	1076.8185	1103.1003	1124.4671	1137.2598	1147.25	1195.9885	1223.1172	1248.9441	1257.9272	1306.4429	1334.6466	1408.6676	1437.6282	1459.2664	1469.2386	1478.3795	1503.0931	1508.8092	1616.3647	2998.3421	3067.2764	3127.6941	3130.3172	3134.9841	3205.3469	3220.7531	3237.0457	3250.2696	3269.873	3677.3411
C(C1CC1)C1=CC=CN1	C(C1CC1)c1ccc[nH]1	
InChI=1S/C8H11N/c1-2-8(9-5-1)6-7-3-4-7/h1-2,5,7,9H,3-4,6H2	InChI=1S/C8H11N/c1-2-8(9-5-1)6-7-3-4-7/h1-2,5,7,9H,3-4,6H2
