17
gdb 83053	2.71247	1.51847	1.25456	3.2931	80.05	-0.2274	0.0168	0.2442	1054.7895	0.135553	-380.83163	-380.823219	-380.822275	-380.864301	32.295	
C	-0.1174827944	 1.5337467111	 0.0393125021	-0.412865
C	 0.0621596209	 0.0348821226	 0.0508497918	-0.063345
C	 1.3543243405	-0.6580382144	-0.2659326783	-0.093152
N	 2.5490897664	 0.1226785461	-0.0910167007	-0.279996
C	 2.6455108901	 0.4288904607	 1.2549696679	 0.01935
N	 1.6923358764	 0.0273385737	 2.0146329573	-0.284331
C	 0.7692320513	-0.7163372986	 1.1873820444	 0.123567
C	 0.1425891681	-1.867919599	 1.7643969447	 0.22531
C	-0.3936591942	-2.840802286	 2.2258145168	-0.390957
H	 0.7326211764	 2.0535697057	 0.4842170539	 0.135477
H	-0.2344550321	 1.8962738967	-0.9877168858	 0.116736
H	-1.0123031939	 1.8146136292	 0.6030214128	 0.127259
H	-0.7981977143	-0.5237880133	-0.3070653596	 0.099884
H	 1.4006772725	-1.4997041109	-0.9460268456	 0.110703
H	 3.3770429265	-0.0929716115	-0.6246303449	 0.251823
H	 3.4838997725	 1.0199109114	 1.6093655872	 0.128847
H	-0.8624073926	-3.6960327636	 2.6449788158	 0.185688
117.1256	131.5718	159.3715	220.5908	234.91	386.4692	421.0574	449.4628	496.4203	562.6607	568.5169	577.7389	664.6292	687.6113	697.5276	773.8524	867.0064	905.771	931.8871	962.9521	983.2939	1013.0667	1088.4194	1101.4043	1118.2991	1137.8185	1228.0385	1253.7959	1316.6848	1366.7149	1400.1924	1420.5033	1455.2303	1488.7417	1497.3943	1641.4722	2236.6425	3041.1052	3100.9671	3132.4696	3153.2061	3187.5186	3196.3033	3504.3781	3620.2188
CC1C2NC=NC12C#C	C[C@H]1[C@H]2NC=N[C@@]12C#C	
InChI=1S/C7H8N2/c1-3-7-5(2)6(7)8-4-9-7/h1,4-6H,2H3,(H,8,9)	InChI=1S/C7H8N2/c1-3-7-5(2)6(7)8-4-9-7/h1,4-6H,2H3,(H,8,9)/t5-,6+,7-/m0/s1
