14
gdb 130382	5.7993	0.83458	0.72958	15.4718	83.74	-0.1574	-0.076	0.0814	1434.6831	0.100759	-469.969341	-469.961034	-469.96009	-470.002504	30.409	
N	-0.0952975824	 1.4557234542	 0.0103465212	-0.5105
C	 0.0016579582	 0.1216707731	 0.0030073911	 0.199993
N	-1.0104851948	-0.6958342772	 0.0061886377	-0.32266
H	-1.9709940437	-0.3608165416	 0.0147441448	 0.284823
C	-0.9372185974	-2.1044980448	-0.0013513603	 0.498938
N	-2.1296764628	-2.6724459624	 0.0043464533	-0.276261
O	-1.8517292276	-4.0233630064	-0.0044392685	-0.251038
C	-0.4255590783	-4.2556223993	-0.0157028989	 0.48088
O	-0.0108779664	-5.3898330374	-0.0244179082	-0.411264
C	 0.1556890916	-2.9518885734	-0.0134273783	-0.572427
H	 0.7362968522	 2.0195062893	 0.0072209314	 0.304536
H	-0.9824458021	 1.9323959292	 0.0190962053	 0.294534
H	 0.9930706717	-0.3139937973	-0.0062721889	 0.201737
H	 1.2110063718	-2.743706016	-0.0199649817	 0.078711
90.1105	125.3225	149.1022	217.0139	241.5394	380.4263	421.9499	423.0188	506.6982	532.2873	539.1513	655.5202	669.1557	738.9778	746.328	754.0069	845.8312	962.4902	976.2859	1005.5437	1071.2757	1161.9	1215.4261	1315.0619	1373.9495	1384.8435	1473.5243	1604.157	1652.4386	1759.9536	1849.6249	3235.8275	3274.6003	3520.1556	3614.9879	3739.6798
NC=[NH+]C1=NOC([O-])=C1	[NH2]=CNC1=NOC(=O)[CH]1	
InChI=1S/C4H5N3O2/c5-2-6-3-1-4(8)9-7-3/h1-2,8H,(H2,5,6,7)	InChI=1S/C4H5N3O2/c5-2-6-3-1-4(8)9-7-3/h1-2H,5H2,(H,6,7)
