19
gdb 104801	2.69416	1.33406	1.13528	1.7677	70.25	-0.2387	0.0593	0.298	1140.498	0.15834	-460.104573	-460.095719	-460.094775	-460.138369	33.665	
O	-0.1124085151	 1.5628748969	-0.3539476298	-0.429457
C	-0.0406940747	 0.1699321456	-0.0613438314	-0.132085
C	-1.4102852222	-0.4968236041	-0.0680237274	 0.351937
C	-2.4548970165	 0.3572366436	 0.6692060459	-0.107517
O	-1.9751921519	 0.8896460473	 1.8887929406	-0.427724
O	-1.929362774	-0.7388625365	-1.423192029	-0.344216
C	-2.1199148633	-2.1230562895	-1.1112284601	 0.106514
C	-0.8191892736	-2.8087720419	-0.8512502646	-0.316152
C	-1.4768953859	-1.9938012599	 0.2485882275	-0.180394
H	-0.4654152969	 1.6509461644	-1.2463725951	 0.296467
H	 0.6363875816	-0.3458430838	-0.7520216062	 0.100863
H	 0.3767053752	 0.0936542894	 0.9467856638	 0.127241
H	-2.7817296621	 1.1448053982	-0.0221060036	 0.096665
H	-3.3284173801	-0.2584261183	 0.9041018396	 0.109457
H	-1.3723457356	 1.6028435917	 1.6466589279	 0.297151
H	-3.0331626579	-2.5960740081	-1.4523062319	 0.106466
H	-0.8836087126	-3.8821142332	-0.6984942813	 0.118361
H	 0.0816596295	-2.4755865677	-1.3561487682	 0.117385
H	-1.754913554	-2.4079954341	 1.2082872232	 0.109036
69.6134	80.1044	179.4082	185.69	281.0804	292.6678	386.6563	424.6587	456.5125	479.4485	500.7785	545.9734	720.6212	762.579	799.7701	834.6072	888.2689	946.7587	961.1693	978.4299	1016.176	1029.8146	1053.1712	1058.7145	1075.9297	1086.8259	1103.5477	1127.8396	1186.9456	1199.1399	1237.5122	1273.977	1299.2311	1348.5421	1375.2148	1399.8322	1416.6958	1425.663	1475.9797	1484.5268	1492.0499	3019.2783	3036.5245	3087.2614	3098.7411	3124.0627	3181.7089	3203.4299	3213.0544	3791.1738	3806.0846
OCC1(CO)OC2CC12	OCC1(CO)O[C@H]2C[C@@H]12	
InChI=1S/C6H10O3/c7-2-6(3-8)4-1-5(4)9-6/h4-5,7-8H,1-3H2	InChI=1S/C6H10O3/c7-2-6(3-8)4-1-5(4)9-6/h4-5,7-8H,1-3H2/t4-,5+/m1/s1
