14
gdb 131123	3.94335	1.07352	1.00933	3.912	64.9	-0.2688	-0.0538	0.215	1163.4739	0.100056	-473.814843	-473.806992	-473.806048	-473.848423	27.849	
O	-0.1406969862	 1.3787349643	 0.1756859986	-0.416704
C	 0.0364973655	 0.0022026353	 0.0095676336	-0.071934
C	 0.836735191	-0.2788143117	-1.2651314636	 0.141279
O	 1.2084124934	 0.6205385458	-1.9733069113	-0.248215
C	 0.7112874382	-0.6389504583	 1.1875443519	 0.441755
C	 0.316054591	-1.5706893905	 2.0954300178	-0.354093
C	 1.4567443489	-1.7211561594	 2.9286230191	 0.040588
N	 2.4490923122	-0.9532208428	 2.5522614331	-0.128522
O	 1.9799776201	-0.2652983084	 1.4393648381	-0.209765
H	 0.3488382409	 1.7940975997	-0.5534968226	 0.302595
H	-0.9356631769	-0.5060398666	-0.1123976979	 0.115642
H	 1.0421831836	-1.3422238228	-1.4931344154	 0.116814
H	-0.64059789	-2.0599871989	 2.1692811299	 0.129698
H	 1.5866419082	-2.3593429358	 3.7911367187	 0.140863
42.9803	90.6425	142.9539	230.7645	303.7488	373.5356	396.4135	456.0496	648.8532	682.6117	729.1934	781.6586	819.92	865.8058	918.3539	930.9641	946.3532	1010.7638	1018.441	1052.0299	1142.3682	1210.0834	1224.98	1272.9964	1317.2471	1384.0751	1396.324	1433.0646	1505.0679	1632.3821	1824.3468	2955.4558	2971.8177	3247.7214	3282.4296	3676.8985
OC(C=O)C1=CC=NO1	O[C@@H](C=O)c1ccno1	
InChI=1S/C5H5NO3/c7-3-4(8)5-1-2-6-9-5/h1-4,8H	InChI=1S/C5H5NO3/c7-3-4(8)5-1-2-6-9-5/h1-4,8H/t4-/m0/s1
