20
gdb 71628	2.69695	1.62585	1.52625	2.6226	78.69	-0.227	0.081	0.308	998.9876	0.17281	-403.07941	-403.071758	-403.070814	-403.111398	30.211	
C	 0.0048939148	 1.5326950141	-0.026454518	-0.527374
C	 0.0152120899	 0.0241017725	-0.0252969296	 0.290264
C	 0.6308481567	-0.9565137814	-1.0434898154	-0.205179
N	 0.0283459461	-1.9328014486	-0.0234413705	-0.163207
C	 0.5968092172	-0.9541683856	 1.0313694369	-0.021101
C	-0.0412434729	-1.0500426688	 2.4032968346	-0.104101
O	-1.3966102755	-1.4495171943	 2.356138154	-0.25034
C	-2.084831812	-1.0648975718	 1.1825807227	-0.104089
C	-1.1803348929	-0.9671156245	-0.0301958748	-0.021133
H	 1.024548334	 1.9331324077	-0.010756593	 0.122523
H	-0.4943496136	 1.9220485867	-0.9205731937	 0.122528
H	-0.5222105155	 1.9286530252	 0.8487159429	 0.1236
H	 0.1695060761	-1.0267471451	-2.0336849606	 0.09559
H	 1.7221375608	-1.0154823879	-1.1058134232	 0.095622
H	 1.6895241472	-0.9952011304	 1.1028003639	 0.06948
H	 0.4761998576	-1.8021204186	 3.0090674082	 0.115734
H	 0.0712945901	-0.0782672968	 2.917247694	 0.087979
H	-2.8554130396	-1.8263232623	 1.0189884072	 0.11574
H	-2.6010895547	-0.0976828769	 1.3209148305	 0.087984
H	-1.7607215738	-1.0203504133	-0.958161246	 0.069478
104.5591	182.2522	189.4353	209.6373	340.1723	387.656	463.1154	495.3578	615.2985	615.7292	762.4195	770.715	786.0171	845.0385	874.6397	910.4507	917.7826	986.6433	1001.8239	1006.0052	1046.1047	1066.7241	1118.6189	1125.6571	1146.516	1161.893	1199.632	1199.7584	1216.8149	1235.0043	1274.4244	1284.1505	1335.166	1360.8687	1383.1095	1405.2388	1418.7746	1438.4822	1488.2934	1488.8536	1501.0381	1508.3553	1529.9163	2940.2679	2947.9075	3025.9914	3035.7649	3043.2976	3046.936	3060.2543	3064.5704	3094.2151	3095.0336	3102.4442
CC12CN3C1COCC23	C[C@@]12CN3[C@@H]1COC[C@@H]23	
InChI=1S/C7H11NO/c1-7-4-8-5(7)2-9-3-6(7)8/h5-6H,2-4H2,1H3	InChI=1S/C7H11NO/c1-7-4-8-5(7)2-9-3-6(7)8/h5-6H,2-4H2,1H3/t5-,6+,7-
