20
gdb 82821	2.25869	1.98714	1.46035	2.4415	77.34	-0.204	0.0671	0.2711	988.0799	0.17124	-403.085667	-403.077581	-403.076637	-403.117813	32.13	
C	-0.1222474047	 1.6079980686	 0.008724985	-0.43052
C	 0.0686477046	 0.0987153412	 0.0347396994	-0.02957
C	 1.0636675741	-0.6131666521	-0.9312185317	-0.078339
C	 2.5066994903	-0.0798468868	-0.8374248978	-0.174409
N	 2.7687599162	-0.8180836268	 0.4444724388	-0.145415
C	 2.1412868923	-0.0879163829	 1.5992079642	-0.239387
C	 0.7371183211	-0.6241104789	 1.2425595806	 0.36842
O	-0.0890805148	-1.1094173665	 2.2608848185	-0.483534
C	 1.4565631851	-1.5726019414	 0.2387450303	-0.045514
H	 0.821220463	 2.1478858522	 0.1337327059	 0.119032
H	-0.562513856	 1.9307700044	-0.9411179432	 0.121406
H	-0.7976760928	 1.9357931993	 0.807965854	 0.10937
H	-0.9010461202	-0.3987265697	-0.0906157244	 0.083352
H	 0.681568478	-0.9236021898	-1.904779596	 0.067212
H	 3.1493049497	-0.4866239901	-1.6249633818	 0.107109
H	 2.6664494298	 1.0032214469	-0.7882215675	 0.09556
H	 2.4928108327	-0.521654738	 2.5411320921	 0.110043
H	 2.3175823063	 0.9936311742	 1.6163844566	 0.09133
H	-0.5054163714	-0.3592190259	 2.7001640504	 0.277555
H	 1.4425880864	-2.660995928	 0.2488314665	 0.076299
132.0692	175.5749	185.4898	223.7867	258.5791	337.6809	418.2533	444.3167	535.1826	576.2681	598.6494	726.7707	781.9064	810.2072	864.7432	881.9194	904.5825	930.2642	960.5578	979.0412	995.1088	1018.0534	1059.2213	1100.2802	1126.1527	1143.8424	1170.4157	1188.5355	1191.5404	1196.8694	1205.0548	1230.5257	1251.7252	1289.9062	1312.6274	1330.8083	1364.7854	1389.7772	1408.8914	1484.5253	1489.2169	1501.8114	1505.9055	3025.4761	3026.1792	3031.502	3034.7515	3076.2706	3081.7861	3086.0893	3092.0783	3104.7346	3131.04	3794.3034
CC1C2CN3CC1(O)C23	C[C@H]1[C@H]2CN3C[C@]1(O)[C@@H]23	
InChI=1S/C7H11NO/c1-4-5-2-8-3-7(4,9)6(5)8/h4-6,9H,2-3H2,1H3	InChI=1S/C7H11NO/c1-4-5-2-8-3-7(4,9)6(5)8/h4-6,9H,2-3H2,1H3/t4-,5+,6+,7+/m0/s1
