20
gdb 17655	3.17464	1.83972	1.53013	1.5733	74.07	-0.2439	0.0826	0.3265	938.6535	0.176781	-348.980602	-348.972425	-348.97148	-349.013114	31.15	
C	-0.1234555404	 1.6987835162	-0.3630243528	-0.431676
C	-0.0456282295	 0.2046612304	-0.0756606783	 0.409805
C	 0.9708843056	-0.5873300489	-0.9460144081	-0.323368
C	 1.7535994157	-0.7632783501	 0.3664089425	-0.066141
O	 0.7534652538	-0.0468959468	 1.1198579393	-0.321321
C	-1.4242203781	-0.4098735381	 0.0467654151	-0.020284
C	-1.6427759062	-1.6883960081	 0.8109356046	-0.280975
C	-2.1488814831	-0.3795635126	 1.3676479552	-0.268517
H	 0.8779282526	 2.133110988	-0.4351693065	 0.112801
H	-0.6494933095	 1.8831677209	-1.3065115157	 0.111541
H	-0.6659972752	 2.2105661136	 0.4374922281	 0.1266
H	 0.5750796857	-1.5081141157	-1.3767355117	 0.109961
H	 1.471343781	-0.0060234338	-1.7225743659	 0.103722
H	 1.8707071071	-1.7947982981	 0.7197103948	 0.100895
H	 2.729148135	-0.2635617775	 0.4110164125	 0.100421
H	-2.0336118141	-0.2685926232	-0.8429773192	 0.078743
H	-2.3613017797	-2.4020507686	 0.4231863745	 0.104049
H	-0.7859242586	-2.127462231	 1.309029378	 0.119738
H	-1.6091159293	 0.0271534727	 2.2153387695	 0.128201
H	-3.2160937127	-0.1880376795	 1.369463884	 0.105805
86.1132	99.2313	198.0908	231.7442	240.44	312.5349	370.6579	453.4994	519.1158	622.5266	785.6098	787.7414	824.7539	833.632	877.9892	894.6557	936.295	965.1316	972.9657	1001.2795	1027.6145	1053.2055	1066.3262	1088.7272	1135.5815	1162.0045	1170.3282	1197.782	1208.902	1221.7647	1229.1388	1251.2784	1275.8315	1351.4214	1403.2873	1404.3627	1455.3115	1482.1501	1487.5206	1492.3229	1499.6102	1531.3581	3014.989	3032.8518	3053.1197	3077.7959	3103.647	3115.4193	3130.9815	3134.6571	3135.3391	3140.1581	3217.6822	3231.5866
CC1(CCO1)C1CC1	C[C@]1(CCO1)C1CC1	
InChI=1S/C7H12O/c1-7(4-5-8-7)6-2-3-6/h6H,2-5H2,1H3	InChI=1S/C7H12O/c1-7(4-5-8-7)6-2-3-6/h6H,2-5H2,1H3/t7-/m0/s1
