15
gdb 44521	4.56499	1.37812	1.23349	2.977	74.16	-0.2434	-0.041	0.2024	989.9817	0.114553	-416.740728	-416.734246	-416.733302	-416.771555	25.997	
N	-0.0932404007	 1.1403990217	 0.4719297295	-0.537576
C	-0.0252861618	-0.0348747301	 0.0168319391	 0.41292
O	 1.1580785326	-0.6188714441	-0.4685693862	-0.269751
C	 0.7902307033	-1.8652119901	-1.0383800145	 0.059405
C	 1.0665494214	-3.3197261871	-0.5669959475	-0.088868
C	 0.3929042862	-3.7243597156	 0.6828466824	-0.230885
N	-0.471995418	-3.5640195522	-0.5235226084	-0.18464
C	-0.5908218498	-2.1169498189	-0.5958861244	 0.254341
C	-1.1126897137	-1.0486044803	 0.0055285243	-0.301656
H	 0.820588158	 1.5940881997	 0.4446624698	 0.228035
H	 0.9449975571	-1.8301074715	-2.1228655235	 0.121601
H	 1.709929657	-4.0005717617	-1.1132647934	 0.115794
H	 0.5116002596	-4.7624505999	 0.9782017431	 0.140458
H	 0.26210732	-3.021752472	 1.4995636997	 0.14477
H	-2.0268107612	-0.912530568	 0.5623052199	 0.136052
124.4401	213.8149	284.3936	363.437	497.6155	559.2672	595.8016	682.6131	691.9543	720.8096	760.4318	827.4082	839.6439	865.3517	886.7138	911.1165	953.3092	996.9714	1020.0557	1054.3539	1090.9873	1102.2372	1127.4658	1138.737	1190.8262	1223.6116	1267.0573	1292.6051	1359.9171	1377.9032	1493.6802	1684.082	1761.341	3047.0761	3126.5828	3181.5928	3219.2268	3260.7973	3487.8486
N=C1OC2C3CN3C2=C1	[NH]C1=C[C]2[C@@H](O1)[C@H]1CN21	
InChI=1S/C6H6N2O/c7-5-1-3-6(9-5)4-2-8(3)4/h1,4,6-7H,2H2	InChI=1S/C6H6N2O/c7-5-1-3-6(9-5)4-2-8(3)4/h1,4,6-7H,2H2/t4-,6-,8?/m1/s1
