14
gdb 48101	2.965	1.25781	1.02916	3.0187	69.53	-0.2744	-0.0828	0.1916	1125.5841	0.099942	-432.85033	-432.84192	-432.840976	-432.884073	29.438	
N	 0.2539841806	 1.4114125844	-0.633510237	-0.46513
C	 0.1783338157	 0.2610516126	-0.0937007233	 0.24291
C	-1.1758701924	-0.4054941647	-0.1304217926	 0.160104
O	-1.393033334	-1.5210177682	 0.2658894297	-0.250314
N	 1.1598039968	-0.429791319	 0.6176782293	-0.088749
C	 1.5657614172	-1.7870146718	 0.3483402374	-0.223832
C	 2.5336349499	-0.6391504163	 0.1794507002	-0.182279
C	 2.9412246157	-0.2533410607	-1.1513237334	 0.288107
N	 3.2821272581	 0.0747128807	-2.2063390291	-0.313396
H	 1.1968322105	 1.803671489	-0.5949004662	 0.240845
H	-1.9461886563	 0.2473285527	-0.5830458072	 0.122564
H	 1.6694607675	-2.4357828115	 1.2121383364	 0.151606
H	 1.2053341207	-2.2629345888	-0.558179169	 0.16198
H	 3.2879521799	-0.4653582684	 0.9415658949	 0.155586
57.8607	106.233	163.3673	178.1559	228.0333	267.0466	313.6338	466.518	534.0619	546.3131	604.9276	669.101	738.2784	804.1722	907.8176	947.5557	977.9185	1042.9102	1047.1486	1077.0335	1121.9006	1133.1527	1157.9909	1297.0599	1363.2041	1377.9955	1409.4199	1508.963	1697.3888	1819.9762	2357.0904	2969.805	3127.5722	3156.5226	3223.7209	3469.5056
N=C(C=O)N1CC1C#N	[NH][C](C=O)N1C[C@H]1C#N	
InChI=1S/C5H5N3O/c6-1-4-2-8(4)5(7)3-9/h3-4,7H,2H2	InChI=1S/C5H5N3O/c6-1-4-2-8(4)5(7)3-9/h3-4,7H,2H2/t4-,8?/m1/s1
