17
gdb 61905	2.66462	0.97702	0.91476	4.7921	69.15	-0.252	0.0004	0.2524	1339.8033	0.134185	-455.180582	-455.170664	-455.16972	-455.216503	34.745	
C	 2.3788725423	 0.5198003315	-0.2619962032	-0.405674
C	 0.9054454523	 0.13825075	-0.3633489408	 0.01355
O	 0.8274093632	-1.1261281435	-1.0350419405	-0.250816
C	-0.4075929482	-1.3757661383	-1.6680592044	-0.213183
C	-0.6085716821	-0.5419375656	-2.8684568335	 0.265707
N	-0.7606304755	 0.1151678998	-3.8062532267	-0.295899
C	 0.2703230935	 0.0989487904	 1.0389411671	 0.36615
N	 0.0698644626	-1.1527449851	 1.5386347464	-0.513439
O	-0.0027927482	 1.1235285029	 1.6296466898	-0.35837
H	 2.9396023313	-0.2546038612	 0.2702150509	 0.12633
H	 2.8061705106	 0.6362477548	-1.2604539965	 0.136247
H	 2.4724696663	 1.4607489744	 0.2840662244	 0.152453
H	 0.3673134386	 0.9046289825	-0.9341375805	 0.125084
H	-0.4019830317	-2.4271821883	-1.9710009591	 0.16199
H	-1.2586085942	-1.2256661529	-0.9886779312	 0.1551
H	 0.4643283398	-1.9473152992	 1.0638753592	 0.268561
H	-0.2112984907	-1.2394171721	 2.5019453186	 0.266209
38.5974	69.2275	82.0913	170.4629	226.566	244.2409	262.7191	322.3132	372.8254	381.7857	437.5688	495.2794	543.5682	612.5593	628.6414	752.6551	801.7611	869.4231	910.6558	1026.836	1037.2966	1080.851	1105.4591	1122.6521	1148.1469	1290.3819	1322.7012	1357.7697	1365.7491	1393.0116	1402.4384	1476.5489	1487.7146	1496.4845	1594.0413	1809.9535	2360.5607	3014.8177	3044.9416	3051.717	3091.2539	3126.8565	3145.9604	3593.3024	3730.0947
CC(OCC#N)C(N)=O	C[C@@H](OCC#N)C(=O)N	
InChI=1S/C5H8N2O2/c1-4(5(7)8)9-3-2-6/h4H,3H2,1H3,(H2,7,8)	InChI=1S/C5H8N2O2/c1-4(5(7)8)9-3-2-6/h4H,3H2,1H3,(H2,7,8)/t4-/m1/s1
