15
gdb 18681	3.16572	2.3113	1.56984	2.7594	60.98	-0.2259	-0.0326	0.1933	801.9489	0.120778	-399.78867	-399.782066	-399.781122	-399.819532	25.167	
O	 0.0551514068	-0.0059589008	-0.3912065837	-0.314321
C	 0.0055299905	 1.1714853006	-0.1179371174	 0.387686
C	-1.2881537551	 1.9598044705	 0.0656004098	-0.275204
N	-1.3209590349	 3.1046167567	-0.8563147453	-0.296306
C	-0.2403610919	 4.0676379386	-0.6375690783	-0.193051
C	 1.1188707129	 3.4718683562	-0.2806165201	 0.037934
O	 1.2415218725	 2.9716516556	 1.0453760583	-0.241101
C	 1.2478485542	 2.0152273036	-0.0289291012	-0.062518
H	-2.1353713608	 1.2985452538	-0.1291819113	 0.128153
H	-1.3587889784	 2.3338933079	 1.0929930773	 0.138081
H	-1.2733867207	 2.756041189	-1.8084968812	 0.227688
H	-0.1429317514	 4.6813805694	-1.5384648554	 0.114619
H	-0.5241499449	 4.7431325136	 0.1809419478	 0.130006
H	 2.0013462171	 4.0083760256	-0.6326871945	 0.106888
H	 2.1888311442	 1.4966452495	-0.1993089849	 0.111446
95.162	208.7124	256.5495	372.8503	422.3807	454.745	503.6564	599.5247	723.376	769.0367	782.0893	844.6155	867.0613	922.8257	973.1896	997.8508	1022.4331	1082.9763	1134.5844	1158.9654	1199.9271	1256.6429	1260.0703	1321.4537	1338.1208	1351.6352	1380.0996	1429.7254	1460.1851	1474.7787	1498.9881	1813.0532	3020.0474	3050.6309	3082.5538	3101.6203	3119.0353	3147.8939	3516.1795
O=C1CNCC2OC12	O=C1CNC[C@H]2O[C@@H]12	
InChI=1S/C5H7NO2/c7-3-1-6-2-4-5(3)8-4/h4-6H,1-2H2	InChI=1S/C5H7NO2/c7-3-1-6-2-4-5(3)8-4/h4-6H,1-2H2/t4-,5+/m1/s1
