18
gdb 102917	1.78436	1.31011	0.88065	2.5603	73.12	-0.2624	-0.0416	0.2208	1354.3493	0.144491	-439.095361	-439.085279	-439.084335	-439.131621	34.551	
C	 0.021759927	 1.5739467217	-0.5240395331	-0.38628
C	-0.1291549556	 0.1313345317	-0.0370026892	-0.200507
C	-1.5429441024	-0.4252458478	-0.2592342141	 0.017169
O	-1.7744300942	-0.4684576632	-1.6538480365	-0.234767
C	-3.1042459794	-0.7153075628	-2.0561053318	-0.195299
C	-4.0218984243	 0.3762950755	-1.6755275029	 0.246299
N	-4.729176262	 1.2319834237	-1.3549192936	-0.306341
C	-1.6857633808	-1.7880306057	 0.4048888844	 0.151253
O	-2.0002682115	-2.8013471604	-0.1629411634	-0.243924
H	 1.0466828375	 1.9255950015	-0.3763047566	 0.120175
H	-0.2175354177	 1.6482293434	-1.5871829986	 0.140568
H	-0.6481788713	 2.2469032924	 0.0215017881	 0.12439
H	 0.5772606676	-0.5241105952	-0.5595452806	 0.124218
H	 0.1028925307	 0.0643199348	 1.0323650086	 0.108959
H	-2.2669888762	 0.2479685579	 0.2361980653	 0.110961
H	-3.0844553108	-0.7948226172	-3.1467460841	 0.163641
H	-3.4843042738	-1.6608064782	-1.6542487641	 0.170161
H	-1.4719031728	-1.7746104022	 1.4986368422	 0.089323
38.0689	78.7885	93.9858	127.9726	196.5689	206.2193	255.6993	274.5978	320.4511	374.1	385.7883	446.8751	626.6118	720.2595	769.9104	797.9554	899.2417	948.3244	964.2298	985.1662	1041.0502	1055.0396	1117.0276	1161.9435	1172.1584	1268.497	1293.2955	1312.1538	1363.3286	1378.7982	1385.0514	1409.7222	1423.6638	1476.4106	1483.49	1494.7548	1507.4915	1833.5296	2356.2016	2869.2753	2947.8541	3036.6917	3043.5036	3057.313	3076.247	3104.2793	3111.3449	3133.2129
CCC(OCC#N)C=O	CC[C@@H](OCC#N)C=O	
InChI=1S/C6H9NO2/c1-2-6(5-8)9-4-3-7/h5-6H,2,4H2,1H3	InChI=1S/C6H9NO2/c1-2-6(5-8)9-4-3-7/h5-6H,2,4H2,1H3/t6-/m1/s1
