20
gdb 30825	2.37646	1.25545	0.87355	1.6773	85.07	-0.1719	0.0486	0.2205	1380.6146	0.169909	-403.1959	-403.18567	-403.184726	-403.231499	36.759	
C	-0.4552833316	 1.5300086335	 0.1975777977	-0.362688
C	 0.1099885793	 0.1132907798	-0.0173132417	-0.305518
C	 0.8651190451	-0.430413668	 1.1501787022	 0.214704
C	 2.2148902272	-0.6287242131	 1.3338201802	 0.255105
O	 3.1544527661	-0.3346049033	 0.3800931306	-0.456945
C	 2.4265797705	-1.1550828425	 2.6393814536	-0.368931
C	 1.1889077747	-1.2703249332	 3.2393772854	 0.326651
C	 0.8063379761	-1.7682992127	 4.5937574584	-0.503997
N	 0.2604896158	-0.8260656222	 2.335018518	-0.359337
H	 0.3500546953	 2.2392106399	 0.4100671282	 0.125716
H	-0.9946527969	 1.8767611522	-0.690194422	 0.107596
H	-1.1518788956	 1.5587687511	 1.042798318	 0.102565
H	-0.71275613	-0.56412503	-0.288720147	 0.093537
H	 0.7924708418	 0.1207610196	-0.8729461235	 0.125777
H	 4.0045378162	-0.6639163052	 0.6834312468	 0.292968
H	 3.373219414	-1.4183477383	 3.0891481297	 0.080133
H	 0.2834041362	-1.0055008733	 5.1848611517	 0.124224
H	 0.15051998	-2.6472684175	 4.544794369	 0.124038
H	 1.7010676471	-2.0575910968	 5.1498281848	 0.134831
H	-0.7315711312	-0.8102863601	 2.4959594298	 0.249571
46.517	95.3006	119.4377	153.7839	184.6126	208.0358	269.0884	276.834	298.5254	394.204	416.3586	495.3332	586.3634	627.1283	650.9911	694.2837	746.9721	772.1176	804.0985	964.1201	992.8542	1021.2509	1058.6631	1066.9822	1077.9495	1113.5788	1180.6525	1241.676	1257.8748	1317.0212	1346.1572	1361.7279	1406.4169	1418.1103	1446.5898	1477.7343	1479.8668	1495.7382	1497.0364	1507.6321	1509.5179	1562.6037	1680.7973	2998.2374	3011.8778	3030.3474	3053.8081	3076.578	3098.6747	3112.5277	3120.8016	3230.0007	3675.2341	3850.71
CCC1=C(O)C=C(C)N1	CCc1c(O)cc(C)[nH]1	
InChI=1S/C7H11NO/c1-3-6-7(9)4-5(2)8-6/h4,8-9H,3H2,1-2H3	InChI=1S/C7H11NO/c1-3-6-7(9)4-5(2)8-6/h4,8-9H,3H2,1-2H3
