18
gdb 67996	2.82638	1.83136	1.32834	3.2078	76.65	-0.2419	0.0272	0.2692	988.2327	0.149301	-401.941245	-401.934037	-401.933093	-401.972523	29.307	
C	 0.0185661383	 1.4415546754	 0.007946146	-0.480079
C	-0.0403469388	-0.0567572138	-0.0091399945	 0.439164
O	 0.8919596324	-0.6280717134	-0.9339851684	-0.283041
C	 0.4214557356	-1.8625731427	-1.3176425267	 0.416218
N	 0.9030367353	-2.5718952135	-2.2432074234	-0.556608
C	-0.7009339728	-2.2199678756	-0.3804199706	-0.143156
C	-0.0774671989	-2.3201432333	 1.060811062	-0.240833
C	-0.3738137104	-0.8359637226	 1.2519658775	-0.130379
C	-1.3018932251	-0.8443189295	 0.0237227837	-0.150102
H	 1.0033457558	 1.7885741645	 0.3357820302	 0.135151
H	-0.1733315588	 1.8463782916	-0.9901906174	 0.133199
H	-0.7314276579	 1.8425206407	 0.6953850127	 0.126005
H	 1.6909618419	-2.0952329144	-2.6862629471	 0.220959
H	-1.3306943267	-3.0357508475	-0.7205861098	 0.100799
H	-0.7114921759	-2.9340720894	 1.7039944521	 0.114191
H	 0.9596799963	-2.661144466	 1.136357741	 0.113002
H	-0.5003213787	-0.3236068192	 2.1992665227	 0.088385
H	-2.3053927714	-0.4718800115	-0.1354000802	 0.097126
147.3718	208.322	245.9528	284.8029	318.8025	432.8228	504.2505	583.5361	594.4189	713.7233	724.8309	795.6121	832.9552	855.0312	868.7449	890.5978	914.6184	931.7575	959.8929	991.5137	1008.1341	1028.2633	1061.0694	1091.5319	1100.8947	1124.8685	1186.847	1188.5198	1222.9969	1256.5108	1267.0694	1299.3792	1336.5597	1411.4273	1437.6794	1479.3296	1494.7569	1504.9561	1783.8828	3041.9654	3052.8741	3110.084	3113.7038	3120.7885	3171.9342	3173.7803	3199.2843	3466.8374
CC12OC(=N)C3CC1C23	C[C@@]12O[C]([NH])[C@H]3C[C@@H]1[C@@H]23	
InChI=1S/C7H9NO/c1-7-4-2-3(5(4)7)6(8)9-7/h3-5,8H,2H2,1H3	InChI=1S/C7H9NO/c1-7-4-2-3(5(4)7)6(8)9-7/h3-5,8H,2H2,1H3/t3-,4+,5-,7+/m0/s1
