20
gdb 18163	3.29993	1.56924	1.37265	1.5292	74.57	-0.2309	0.0769	0.3078	1022.1971	0.176616	-348.966472	-348.958178	-348.957234	-348.999122	31.391	
C	 0.4608933434	 1.3278167818	-0.1436877818	-0.383698
C	-0.5763660698	 0.6067258109	 0.7247271858	-0.209742
C	 0.0853884184	-0.2654886923	 1.7777767942	 0.158608
O	-0.8320379643	-0.9266156315	 2.7019305126	-0.309538
C	-0.0938815112	-2.1476209692	 2.5771396725	 0.071759
C	-0.2289125029	-2.7278602792	 1.2068678713	-0.013453
C	-1.5052738982	-2.6792766435	 0.3942575212	-0.4212
C	 0.7666382044	-1.5978308413	 1.4561654281	-0.180166
H	 1.0912471583	 0.6130668478	-0.6836840148	 0.120979
H	-0.0247789871	 1.9683843578	-0.8852092624	 0.117583
H	 1.1190749059	 1.9603979144	 0.4623393615	 0.116144
H	-1.2067776736	 1.3404992618	 1.2428611564	 0.10594
H	-1.2392467112	 0.0085131074	 0.0952511009	 0.105269
H	 0.7735641987	 0.3542493457	 2.3725192745	 0.078141
H	 0.1418224245	-2.6853058438	 3.488983163	 0.097846
H	 0.3166781754	-3.6671615729	 1.1211303198	 0.087569
H	-2.1590928437	-1.8808156012	 0.7494916731	 0.140075
H	-1.3077581364	-2.5235049457	-0.671660258	 0.113127
H	-2.0497892318	-3.6243099856	 0.4962832406	 0.112073
H	 1.8262553013	-1.7201182213	 1.2740693515	 0.092683
73.9799	157.6126	168.9858	219.632	256.9674	275.4862	321.5023	418.0349	532.0436	620.022	693.826	732.364	796.7042	820.0413	864.8306	904.2897	952.8439	983.1178	997.8601	1025.0714	1031.9721	1058.19	1081.8961	1090.3957	1104.918	1148.9215	1174.3994	1206.7495	1262.0894	1270.4306	1309.6191	1338.0888	1345.7593	1404.6104	1410.4029	1416.2449	1443.1757	1487.3425	1499.6363	1500.4953	1506.4783	1511.2891	2984.2071	3032.2162	3034.7291	3036.4908	3088.2616	3089.8233	3108.2526	3113.4163	3115.5125	3138.2755	3169.4885	3196.2786
CCC1OC2C(C)C12	CC[C@H]1O[C@H]2[C@@H](C)[C@@H]12	
InChI=1S/C7H12O/c1-3-5-6-4(2)7(6)8-5/h4-7H,3H2,1-2H3	InChI=1S/C7H12O/c1-3-5-6-4(2)7(6)8-5/h4-7H,3H2,1-2H3/t4-,5+,6-,7-/m0/s1
