20
gdb 18095	4.0435	1.79495	1.31355	0.0533	81.05	-0.2125	0.0413	0.2538	978.3556	0.180545	-311.905739	-311.898567	-311.897623	-311.93716	27.941	
C	 0.0110602461	 1.5158891589	 0.065998748	-0.196115
C	 1.5203870343	 1.9100631016	 0.0963628564	-0.339732
C	 2.1679811163	 0.6490669201	 0.5958813103	 0.283194
C	 1.3357903686	-0.3935976969	 0.5983654008	 0.283192
C	-0.0385657552	-0.0431725583	 0.1010161477	-0.339732
C	 2.012183946	-1.677808942	 0.988637333	-0.339719
C	 3.3874508908	-1.1754556761	 1.5277053926	-0.196107
C	 3.5711059854	 0.2753889685	 0.9839840048	-0.339719
H	-0.4812527968	 1.9109528853	 0.9599669336	 0.10422
H	-0.5143724497	 1.9332012448	-0.7970005212	 0.094535
H	 1.8939281865	 2.1777185558	-0.903140282	 0.099568
H	 1.7065729054	 2.7839567732	 0.7324039884	 0.097243
H	-0.8479431594	-0.4166354449	 0.7400289925	 0.097243
H	-0.2190541405	-0.469669315	-0.8968332834	 0.099568
H	 1.4607227612	-2.2570214433	 1.7391734272	 0.09724
H	 2.1308086235	-2.3424816329	 0.1201203532	 0.099568
H	 3.3559778049	-1.1477305588	 2.6212643771	 0.104219
H	 4.2134921268	-1.8354124576	 1.2500148837	 0.094525
H	 4.2435168893	 0.3045635601	 0.1138140821	 0.099568
H	 4.015366393	 0.9437315333	 1.7315479251	 0.09724
108.6814	138.916	199.0711	232.4208	369.7343	500.6878	530.8168	641.0661	666.619	728.1996	811.8851	862.3262	886.7247	899.3593	905.659	919.5535	985.0354	990.8265	994.7614	1023.439	1099.1489	1120.2881	1171.1817	1178.1857	1191.5639	1213.1554	1235.1027	1241.9419	1246.8927	1299.18	1315.6341	1322.5685	1336.94	1342.064	1391.0592	1483.3631	1483.6563	1488.7688	1494.1469	1505.9355	1508.3473	1731.7645	2994.5417	2994.9721	2998.5199	2998.6831	3035.2026	3036.3164	3039.2488	3041.1831	3057.953	3059.3965	3098.5265	3098.7461
C1CC2=C(C1)CCC2	C1CC2=C(C1)CCC2	
InChI=1S/C8H12/c1-3-7-5-2-6-8(7)4-1/h1-6H2	InChI=1S/C8H12/c1-3-7-5-2-6-8(7)4-1/h1-6H2
