13
gdb 21608	3.94683	2.02262	1.33902	3.4743	66.39	-0.2229	-0.0457	0.1772	845.4847	0.098412	-390.972789	-390.966169	-390.965225	-391.003392	25.445	
N	-0.0163835411	 1.3423824916	 0.166063037	-0.561007
C	 0.0308388296	-0.0236265793	 0.0544107344	 0.528683
N	-1.1551397615	-0.6886612914	 0.054821834	-0.367206
H	-2.0368200475	-0.2032118629	 0.1548934552	 0.264868
C	-1.2196450147	-2.0828115928	-0.004370908	 0.349931
N	-2.3677722784	-2.644715586	-0.0066785159	-0.555226
C	 0.1202633384	-2.6612031631	-0.0386777701	-0.054399
N	 1.2204852074	-1.9824245873	-0.0240493692	-0.167287
N	 1.2007685167	-0.6106459453	 0.0018939422	-0.318998
H	 0.8848645957	 1.7701050642	 0.0072581891	 0.277903
H	-0.7854883448	 1.8196128322	-0.2800654537	 0.261334
H	-2.2645828899	-3.6572984897	-0.0456224646	 0.222669
H	 0.20712046	-3.7442464803	-0.0699631704	 0.118733
137.631	207.5319	326.7908	340.528	413.8446	468.8155	552.9388	575.5364	592.2882	632.0004	721.966	752.6556	769.748	812.8029	906.8973	984.4242	1006.7658	1058.3666	1138.1156	1168.9049	1320.9045	1340.2195	1395.968	1522.7641	1574.5493	1597.4683	1651.5561	1716.9463	3165.3751	3503.8881	3570.4923	3588.6214	3680.5213
NC1=[NH+]C(=N)C=N[N-]1	Nc1[nH]c([NH])cnn1	
InChI=1S/C3H4N5/c4-2-1-6-8-3(5)7-2/h1H,(H3-,4,5,7,8)/q-1/p+1	InChI=1S/C3H10N5/c4-2-1-6-8-3(5)7-2/h2-4,6-8H,1,5H2
