20
gdb 84445	3.3807	1.41444	1.23859	1.9639	79.62	-0.2102	0.0093	0.2195	1079.0597	0.171597	-403.118927	-403.110891	-403.109947	-403.150729	32.917	
C	-0.1972949055	 1.5504403971	 0.0099927822	-0.397964
C	 0.0398879426	 0.0369170481	-0.0164369378	-0.001938
C	 0.7474929224	-0.4315973353	-1.2787731252	-0.068423
C	 1.8493662485	-1.1676454941	-1.142740182	-0.160423
C	 2.327736994	-1.4734601227	 0.2673373352	 0.372344
O	 3.4422004031	-2.3183371492	 0.342335173	-0.49388
C	 1.0856040263	-1.8692327683	 1.0923343348	-0.202507
N	 0.7565901701	-0.4011410304	 1.2097107832	-0.127219
C	 2.2396366163	-0.1448951293	 1.0689799616	-0.236865
H	 0.744901705	 2.1054500042	-0.032038474	 0.117418
H	-0.8031104967	 1.8599861364	-0.8475733615	 0.11255
H	-0.7198928475	 1.8293495405	 0.9286736146	 0.126958
H	-0.9469495416	-0.4471833328	 0.0265653281	 0.089087
H	 0.3315183279	-0.171170257	-2.248669323	 0.09179
H	 2.4082204265	-1.5720408084	-1.9824201231	 0.087544
H	 4.121800201	-1.9839689428	-0.2532145503	 0.275578
H	 0.3245693461	-2.4901560546	 0.6134746674	 0.103255
H	 1.3414613514	-2.2694404729	 2.0780726409	 0.108389
H	 2.7118974251	-0.2100754611	 2.0538691005	 0.10594
H	 2.5243214351	 0.7839797326	 0.5700674455	 0.098366
150.2995	211.9434	244.4233	259.8791	321.4778	353.7504	396.519	441.4381	464.1427	488.1358	593.7434	638.5435	708.2936	727.8996	771.2466	841.9345	906.4856	911.5726	941.9628	947.474	966.5449	1010.0495	1040.3616	1058.0216	1088.703	1095.7873	1151.0421	1165.7296	1185.3233	1217.8173	1238.8324	1268.3684	1288.5179	1325.4061	1347.1855	1369.6046	1385.7572	1405.3494	1482.4931	1491.9333	1498.2259	1515.3539	1691.9219	2993.1382	3039.4949	3045.3906	3052.6578	3106.9422	3112.6864	3116.0677	3123.0474	3149.1648	3174.3924	3800.0301
CC1C=CC2(O)CN1C2	C[C@H]1C=C[C@]2(O)CN1C2	
InChI=1S/C7H11NO/c1-6-2-3-7(9)4-8(6)5-7/h2-3,6,9H,4-5H2,1H3	InChI=1S/C7H11NO/c1-6-2-3-7(9)4-8(6)5-7/h2-3,6,9H,4-5H2,1H3/t6-/m0/s1
