14
gdb 24245	4.1513	1.66238	1.29727	1.5336	65.88	-0.2069	0.0086	0.2154	913.349	0.103598	-436.673196	-436.667196	-436.666252	-436.703498	24.272	
C	-0.0035594358	 1.4716873623	 0.1107128239	-0.315402
C	 1.2958705585	 0.7277398112	 0.04279295	 0.077811
O	 2.004443048	 0.4167431859	 1.2674241313	-0.266012
C	 1.1498877135	-0.4130325432	 1.8840514844	 0.411752
C	 0.0142168883	-0.7695276308	 1.2596889968	 0.159221
N	-0.6932536371	-1.6202282076	 2.0971158523	-0.331179
C	 0.0585587512	-1.7087588345	 3.1481803722	 0.02497
O	 1.2370232721	-0.9659724439	 3.0998713618	-0.201168
C	-0.0362517094	-0.0465266743	-0.0332619317	-0.204499
H	-0.3216052195	 1.8988545655	 1.055090104	 0.133481
H	-0.2416131003	 2.065963764	-0.7653510648	 0.125892
H	 1.9863907824	 0.8566742797	-0.7790856672	 0.121352
H	-0.0921160002	-2.2780705919	 4.0496702037	 0.152243
H	-0.3876001016	-0.5047903025	-0.9501865866	 0.11154
151.0184	271.6164	373.9686	454.0546	467.6035	620.1989	645.8631	701.6004	723.8006	751.2791	769.3032	785.0702	812.0964	921.0847	935.3069	955.6721	1029.3943	1033.7326	1066.431	1079.4413	1116.9685	1156.2204	1183.152	1245.7898	1287.8866	1351.3177	1402.7427	1461.2222	1483.4625	1515.7613	1670.5741	3133.925	3179.2725	3213.5007	3227.1704	3296.7122
C1C2OC3=C(N=CO3)C12	C1[C@H]2Oc3c(nco3)[C@@H]12	
InChI=1S/C6H5NO2/c1-3-4(1)9-6-5(3)7-2-8-6/h2-4H,1H2	InChI=1S/C6H5NO2/c1-3-4(1)9-6-5(3)7-2-8-6/h2-4H,1H2/t3-,4+/m0/s1
