23
gdb 60065	3.00608	0.94926	0.92485	2.4548	81.4	-0.2403	0.0573	0.2976	1428.4922	0.203759	-425.408931	-425.398574	-425.39763	-425.444503	38.333	
C	-0.0392373351	 1.5905682151	 0.1149109811	-0.403434
C	 0.0272263508	 0.0710833795	-0.0356985279	 0.129363
O	 0.7936552136	-0.5206256568	 1.0149506482	-0.425379
C	-1.367199546	-0.5629279487	-0.1464033822	-0.292195
C	-1.3858271301	-2.0927176466	-0.2076591236	 0.32507
C	-0.5341253961	-2.6614192073	-1.3433285952	-0.463017
C	-1.1792749951	-2.855326197	 1.1271756984	-0.100406
O	-2.4203062115	-3.572501954	 0.963077459	-0.276591
C	-2.7969488359	-2.7360305075	-0.1467966963	-0.121119
H	 0.96782461	 2.0082557472	 0.197089396	 0.125135
H	-0.5393392937	 2.0531521155	-0.7420958146	 0.118047
H	-0.6008749788	 1.8689108802	 1.015881934	 0.107476
H	 0.597236181	-0.1641581198	-0.9416914213	 0.093995
H	 0.3931404519	-0.2618507508	 1.8525547958	 0.278319
H	-1.9761010108	-0.2316318277	 0.7076876636	 0.085309
H	-1.8592168374	-0.1605916973	-1.0431367545	 0.097079
H	 0.5281160057	-2.4515546906	-1.1872177255	 0.132957
H	-0.6518976664	-3.7481645729	-1.4014002451	 0.123317
H	-0.8287392972	-2.2394438704	-2.3115162143	 0.108141
H	-0.3145579043	-3.5254154315	 1.1824933352	 0.104004
H	-1.1953942596	-2.2220219447	 2.0241809573	 0.072549
H	-3.6036668791	-2.0382177497	 0.1218249317	 0.085587
H	-3.1093730261	-3.3209319644	-1.0209204997	 0.095793
49.4089	91.0056	104.2502	159.5504	233.3414	254.0791	285.2762	301.2082	313.6907	351.4476	379.3837	419.8445	467.7877	494.9108	703.1736	834.8426	847.9928	884.5715	924.635	928.534	941.8683	971.2793	990.0176	1012.6626	1033.8687	1048.4311	1084.4246	1129.9906	1158.4506	1163.7708	1167.9237	1197.0271	1268.4632	1297.2323	1307.5377	1327.5753	1338.7154	1379.4827	1397.8801	1402.6119	1412.9748	1423.575	1475.1533	1491.2689	1492.8757	1495.124	1502.4706	1514.2194	1534.7832	2986.3253	2995.8643	3008.701	3022.6392	3027.2668	3032.4032	3043.8175	3053.1399	3065.502	3093.9398	3094.2538	3109.1052	3118.3641	3797.7504
CC(O)CC1(C)COC1	C[C@@H](O)CC1(C)COC1	
InChI=1S/C7H14O2/c1-6(8)3-7(2)4-9-5-7/h6,8H,3-5H2,1-2H3	InChI=1S/C7H14O2/c1-6(8)3-7(2)4-9-5-7/h6,8H,3-5H2,1-2H3/t6-/m1/s1
