23
gdb 60473	5.4512	0.51038	0.48256	1.3067	90.17	-0.2539	0.0348	0.2887	2308.691	0.201759	-388.251084	-388.239631	-388.238686	-388.288988	40.386	
C	-0.1217101728	 1.5409759351	-0.0112637297	-0.388506
C	-0.0105226779	 0.0107535425	 0.0286241611	 0.038234
C	 0.9012283402	-0.4321871725	 1.1831226301	-0.382069
C	-1.410928867	-0.6221507819	 0.1031666489	-0.18509
C	-1.4284392012	-2.138460108	-0.040710282	-0.05149
O	-2.7795334907	-2.5593703484	-0.0903849577	-0.244983
C	-2.9042149082	-3.9608855707	-0.2092570154	-0.205371
C	-4.3114460796	-4.3356028257	-0.26778945	 0.280378
C	-5.4628336633	-4.672500851	-0.3188300793	-0.415279
H	 0.8646132984	 2.0069713771	-0.106152127	 0.108991
H	-0.7350206471	 1.8753227514	-0.8543841421	 0.111652
H	-0.5822639069	 1.923517922	 0.907431775	 0.113452
H	 0.4548228943	-0.3155027662	-0.9132613599	 0.071576
H	 0.4616062121	-0.1631323018	 2.1513008702	 0.113601
H	 1.0745640125	-1.5126257495	 1.1854311655	 0.112433
H	 1.8789781928	 0.0563651968	 1.1169359437	 0.111327
H	-1.892048443	-0.3512065545	 1.0518109432	 0.102583
H	-2.04056194	-0.2086360114	-0.6934213796	 0.105378
H	-0.9007133192	-2.4434513197	-0.9620414193	 0.084003
H	-0.9135770815	-2.6278777138	 0.8021701034	 0.088022
H	-2.3885536591	-4.3205482959	-1.1170302447	 0.11583
H	-2.4217209337	-4.4677810849	 0.6448509526	 0.116076
H	-6.4832664888	-4.9629028987	-0.3636023569	 0.199253
32.6755	64.6398	80.8826	112.7689	132.57	174.8426	226.4917	248.8692	288.8847	306.815	335.3582	407.1771	419.1761	480.4831	564.8739	606.5585	674.1524	794.2278	832.2994	927.6332	945.1302	964.7317	974.0788	994.8858	1025.74	1034.3425	1069.8068	1141.147	1159.4264	1190.4096	1195.4933	1245.448	1257.9974	1302.7668	1312.6064	1363.4201	1372.9175	1391.8111	1401.2197	1422.4224	1447.3234	1483.8428	1489.6309	1496.6724	1500.0396	1505.9221	1510.9994	1528.8849	2248.0769	2940.8214	2950.7616	2963.0054	2979.4641	2994.2748	3024.0981	3025.3962	3031.3768	3070.7619	3088.8874	3095.0666	3100.2717	3102.58	3506.752
CC(C)CCOCC#C	CC(C)CCOCC#C	
InChI=1S/C8H14O/c1-4-6-9-7-5-8(2)3/h1,8H,5-7H2,2-3H3	InChI=1S/C8H14O/c1-4-6-9-7-5-8(2)3/h1,8H,5-7H2,2-3H3
