17
gdb 98368	3.04042	0.87441	0.71127	3.6093	66.91	-0.2494	-0.0251	0.2242	1535.0894	0.132269	-496.135531	-496.125288	-496.124343	-496.172434	34.229	
C	 0.0269060175	 1.3376727879	-0.0766415044	-0.246086
O	-0.0525693258	-0.0986395203	-0.0854982584	-0.224442
C	-1.2736717173	-0.613140382	 0.0583152689	 0.432175
O	-2.2865768654	 0.0329830679	 0.1966850198	-0.37627
C	-1.2798457406	-2.1379740475	 0.0228305103	 0.001649
O	-2.5661818779	-2.6020871782	 0.3434026714	-0.434718
C	-0.8372686919	-2.6490335825	-1.3679196199	-0.289624
C	-0.8378080014	-4.1641348718	-1.4314731622	 0.149502
O	 0.0811088752	-4.8184798589	-1.8535045604	-0.238458
H	 1.0828243256	 1.5740124957	-0.2012437996	 0.145626
H	-0.5614762429	 1.7566415839	-0.8960777104	 0.149277
H	-0.3478243544	 1.732477021	 0.870317555	 0.15059
H	-0.5605058004	-2.4922920468	 0.7751199122	 0.116474
H	-3.1298414765	-1.81362951	 0.3799930939	 0.298959
H	-1.5636826765	-2.282137889	-2.1063144229	 0.127981
H	 0.1565126933	-2.2799749578	-1.6306913873	 0.132688
H	-1.7680744005	-4.6396458918	-1.0574570159	 0.104677
46.4215	70.4368	73.4059	109.1921	116.0215	197.1063	230.558	288.3083	361.183	377.5153	412.6146	490.8063	514.9647	672.7699	760.4893	843.6429	878.4311	942.4685	1014.5012	1057.0516	1088.8017	1140.6409	1178.0661	1210.6605	1224.4758	1246.1255	1288.5285	1304.5832	1357.6627	1419.9614	1444.4476	1454.7922	1478.4415	1482.7401	1495.5146	1803.6277	1830.185	2926.1023	3007.6255	3027.1503	3058.7174	3122.1918	3137.4438	3170.7444	3702.3557
COC(=O)C(O)CC=O	COC(=O)[C@@H](O)CC=O	
InChI=1S/C5H8O4/c1-9-5(8)4(7)2-3-6/h3-4,7H,2H2,1H3	InChI=1S/C5H8O4/c1-9-5(8)4(7)2-3-6/h3-4,7H,2H2,1H3/t4-/m0/s1
