17
gdb 72864	3.07565	1.26859	1.07516	3.1694	72.82	-0.2387	0.021	0.2598	1131.4894	0.136529	-417.978012	-417.969894	-417.968949	-418.011083	30.975	
O	 0.4660626749	 1.3531703699	-0.5010494071	-0.4685
C	 0.1334969202	 0.0621789444	-0.1158159085	 0.415278
C	 0.3999348839	-0.9861525335	-1.2106566288	-0.208775
N	-0.8787296062	-1.6722805041	-0.8671181626	-0.318099
C	-1.3106692144	-0.557520219	 0.0017785066	-0.102431
C	-1.0440762609	-0.9077981196	 1.5052998471	-0.132308
C	 0.4322440144	-0.3878872785	 1.3442011436	-0.322702
C	-1.8380684227	-0.1445707306	 2.4520862668	 0.254123
N	-2.4700562728	 0.4950484044	 3.1801730065	-0.327419
H	 0.2609279819	 1.9611367121	 0.2178246621	 0.28824
H	 0.4065963405	-0.5066035799	-2.1960422096	 0.114665
H	 1.2914532895	-1.6140841271	-1.1075612788	 0.106828
H	-1.4875146214	-1.8406637569	-1.6578701461	 0.230434
H	-2.2413775513	-0.0463713176	-0.2487172377	 0.092238
H	-1.1361999282	-1.9760967708	 1.7073897448	 0.132182
H	 1.2014786747	-1.1544436234	 1.4564260508	 0.123774
H	 0.668992108	 0.4451607802	 2.0105767808	 0.122473
46.1361	154.2353	184.1514	278.1382	331.8533	355.3224	386.843	416.0326	478.8853	545.7662	631.8319	653.9642	714.9324	805.0454	863.6082	908.5483	934.6833	978.2086	1002.943	1016.2482	1027.5539	1062.0826	1102.1373	1115.41	1136.2498	1152.1462	1195.6835	1236.9877	1252.9127	1303.0707	1317.5023	1350.4547	1374.5423	1408.8626	1470.5077	1511.4461	2347.5109	3028.9903	3068.7478	3079.525	3103.6626	3103.7799	3128.6221	3559.4603	3804.1708
OC12CNC1C(C2)C#N	O[C@]12CN[C@H]1[C@@H](C2)C#N	
InChI=1S/C6H8N2O/c7-2-4-1-6(9)3-8-5(4)6/h4-5,8-9H,1,3H2	InChI=1S/C6H8N2O/c7-2-4-1-6(9)3-8-5(4)6/h4-5,8-9H,1,3H2/t4-,5-,6+/m0/s1
