21
gdb 101214	3.9361	0.80207	0.7064	3.1554	79.8	-0.2411	-0.0187	0.2224	1614.3315	0.179836	-424.239164	-424.229142	-424.228197	-424.274861	36.714	
C	-0.0843054951	 1.5908130361	 0.103019908	-0.382102
C	-0.0356719512	 0.0618781576	 0.0567529789	-0.192999
C	-1.4241070402	-0.5842645194	-0.0312829367	 0.124472
O	-2.142880999	-0.1359449358	-1.1792027896	-0.430796
C	-1.3672928052	-2.1089559334	 0.0136643295	 0.00009
C	-1.0171403628	-2.7676463362	 1.3876675126	-0.368451
C	-2.2803536257	-3.633956571	 1.2336425466	 0.402565
O	-2.6975849409	-4.5937062658	 1.8128098018	-0.288379
C	-2.7417087441	-2.8481998656	-0.0020570622	-0.363364
H	 0.9220342543	 2.0196891174	 0.1044865557	 0.111313
H	-0.6277676184	 1.9849827709	-0.7595794337	 0.128676
H	-0.5979308572	 1.9402858142	 1.0054381708	 0.116015
H	 0.5553934417	-0.2695114449	-0.8102074547	 0.085645
H	 0.4830220621	-0.3268686232	 0.9418921596	 0.103426
H	-2.0323229312	-0.2358189565	 0.81592164	 0.081648
H	-1.6401669639	-0.3960992752	-1.9597399398	 0.276969
H	-0.7071185071	-2.4747048967	-0.7813154405	 0.069276
H	-0.0744021111	-3.3132734476	 1.475345012	 0.129427
H	-1.0961130987	-2.0757554943	 2.2345146045	 0.129389
H	-3.5876261959	-2.1859560083	 0.2118546416	 0.139793
H	-2.9945951004	-3.4498608722	-0.8786174245	 0.127389
41.4353	80.372	106.2599	141.782	214.6983	248.8782	289.897	307.3268	379.7096	408.9393	426.6131	503.9379	505.0055	661.2205	687.4604	765.9695	798.0011	877.8044	928.009	937.5781	984.8584	1007.2337	1020.9976	1061.0669	1090.9915	1099.1494	1129.9334	1142.82	1182.4656	1190.3669	1237.0285	1255.0016	1266.522	1287.0561	1331.5085	1373.9663	1397.5173	1407.3919	1420.3559	1428.2702	1446.3603	1481.9411	1495.6328	1509.322	1894.5561	2997.8329	3012.1418	3038.5953	3040.6745	3044.1689	3053.0616	3057.5044	3103.4049	3110.3182	3113.0342	3122.9209	3791.8701
CCC(O)C1CC(=O)C1	CC[C@@H](O)C1CC(=O)C1	
InChI=1S/C7H12O2/c1-2-7(9)5-3-6(8)4-5/h5,7,9H,2-4H2,1H3	InChI=1S/C7H12O2/c1-2-7(9)5-3-6(8)4-5/h5,7,9H,2-4H2,1H3/t7-/m1/s1
