21
gdb 100991	2.66395	1.05175	0.98328	2.0185	73.87	-0.2529	0.0541	0.307	1321.997	0.180196	-461.330955	-461.320735	-461.31979	-461.366206	37.349	
C	-0.3557734213	 1.4430199081	 0.1408339355	-0.424073
C	 0.05094985	-0.0284183199	-0.0130857657	-0.003886
C	 0.7674056865	-0.2748671171	-1.3536886003	-0.086194
O	-0.0681477698	-0.0315076683	-2.4765396493	-0.424261
C	 0.9169817047	-0.5026895287	 1.157702879	 0.339719
O	 2.1052553331	 0.2570993198	 1.1390537692	-0.482674
C	 0.1819213231	-0.6282811902	 2.5206173112	-0.134263
O	 0.2066284822	-2.065406608	 2.4469231275	-0.269661
C	 1.0668663716	-2.0448605422	 1.2929827495	-0.136962
H	 0.5260872858	 2.0899860269	 0.1566518172	 0.132585
H	-1.0055257316	 1.7503004507	-0.6842853304	 0.107974
H	-0.9138633409	 1.6140616991	 1.0665371533	 0.116945
H	-0.8553346276	-0.6476285167	-0.0118269275	 0.089739
H	 1.6864640675	 0.324413716	-1.3962600549	 0.107591
H	 1.0625256216	-1.3268508278	-1.4308510003	 0.105626
H	-0.1391501464	 0.920004997	-2.5929760591	 0.284892
H	 2.6621656417	-0.0221340936	 1.8731861488	 0.282198
H	 0.769433049	-0.2419332509	 3.3673029976	 0.087838
H	-0.8387073402	-0.2351951049	 2.5868247297	 0.107383
H	 0.679583261	-2.6680871253	 0.4791549559	 0.1106
H	 2.09335876	-2.3624279441	 1.530055573	 0.088885
68.9998	95.5938	104.9538	175.3784	213.6487	242.7626	291.4367	300.5817	306.5452	337.1233	356.1459	471.6684	478.3458	487.6335	730.1065	812.9647	865.7731	907.7068	926.5545	942.8451	1000.4639	1025.9115	1032.2601	1044.0487	1075.0224	1099.904	1128.3717	1150.7917	1154.7591	1162.3835	1211.7149	1244.5917	1296.4234	1317.6228	1355.9989	1366.339	1389.3487	1405.2974	1413.6838	1427.0145	1497.1593	1502.9344	1504.5475	1509.8325	1530.2398	2982.7988	2994.9511	3017.1686	3032.4557	3040.0202	3060.2633	3062.2627	3075.2912	3102.189	3118.4647	3811.1243	3836.2881
CC(CO)C1(O)COC1	C[C@@H](CO)C1(O)COC1	
InChI=1S/C6H12O3/c1-5(2-7)6(8)3-9-4-6/h5,7-8H,2-4H2,1H3	InChI=1S/C6H12O3/c1-5(2-7)6(8)3-9-4-6/h5,7-8H,2-4H2,1H3/t5-/m0/s1
