15
gdb 79554	2.69831	1.67323	1.22931	3.5652	69.61	-0.2542	-0.0132	0.241	995.7452	0.111879	-416.727542	-416.719963	-416.719019	-416.759628	28.595	
C	-0.1951393997	 1.4616740003	-0.1467546141	-0.327612
N	 0.0987317806	 0.0418100035	 0.0168437359	-0.069744
C	 1.413432502	-0.5304034502	-0.162449655	-0.085124
C	 2.5317970885	 0.3293829097	 0.4155730452	-0.068402
O	 3.1021913087	-0.3557227766	 1.5340903398	-0.263405
C	 1.8591110003	 0.3378068014	 1.7400750745	 0.30323
C	 1.8122632229	 1.3583664067	 2.7402276822	 0.222343
N	 1.7257962886	 2.1772307882	 3.552204461	-0.340897
C	 0.718570879	-0.5210674127	 1.1915311503	-0.158409
H	 0.5734937607	 2.1428194644	 0.2398299193	 0.123304
H	-0.332656923	 1.6618299529	-1.2131782833	 0.134833
H	-1.1364746858	 1.6795043868	 0.3651471739	 0.141277
H	 1.545977338	-1.3639397432	-0.8414666195	 0.124673
H	 3.1294407474	 1.1091673988	-0.0400203665	 0.138011
H	 0.2380702118	-1.3339475901	 1.7218508264	 0.125922
110.3928	156.6051	185.0425	233.2996	285.7833	423.4495	462.5334	538.7001	571.2113	582.8766	656.846	751.1982	794.2378	871.1906	893.2779	927.6372	934.6487	966.4726	1015.4429	1042.0492	1078.0891	1154.6855	1158.5522	1180.0261	1234.6765	1248.8804	1278.2406	1356.2846	1385.3386	1454.2183	1493.3034	1500.2487	2358.2313	3017.9707	3090.8034	3119.9796	3189.8835	3200.0218	3206.7728
CN1C2C3OC3(C#N)C12	CN1[C@H]2[C@@H]3O[C@]3(C#N)[C@@H]12	
InChI=1S/C6H6N2O/c1-8-3-4(8)6(2-7)5(3)9-6/h3-5H,1H3	InChI=1S/C6H6N2O/c1-8-3-4(8)6(2-7)5(3)9-6/h3-5H,1H3/t3-,4+,5+,6-,8?/m1/s1
