20
gdb 82506	3.18073	1.4039	1.30772	3.0795	77.47	-0.2199	0.0606	0.2805	1070.2283	0.172527	-403.114017	-403.105987	-403.105042	-403.146003	32.463	
C	 0.0125622676	 1.5234268635	-0.0663990783	-0.460316
C	-0.0134434582	 0.0191604892	 0.0559467388	 0.336521
C	-1.3175065227	-0.7148294572	-0.3074750864	-0.3141
C	-1.4681394599	-1.9045481321	 0.6484696552	-0.107795
C	-0.5199774153	-3.0717795569	 0.5698086317	 0.072917
O	 0.2933591084	-3.3229359582	-0.547270653	-0.409564
C	-0.2118063732	-1.9477175222	 1.5239266632	-0.080801
C	 0.6562359619	-0.764909243	 1.1398180801	-0.087187
N	 1.2591457181	-0.6651637317	-0.1998995756	-0.382015
H	 0.9837893839	 1.9104432157	 0.251065512	 0.12782
H	-0.1446422015	 1.8348256443	-1.10628013	 0.114284
H	-0.770180471	 1.9885460006	 0.5438121269	 0.107012
H	-2.1675666812	-0.0393655918	-0.1670064148	 0.105258
H	-1.3298304876	-1.0131540613	-1.3641000894	 0.094903
H	-2.4551692973	-2.0948876198	 1.0578521866	 0.08531
H	-0.8748328849	-3.9857241333	 1.0477154842	 0.093527
H	-0.2752304724	-3.6350970623	-1.2600352875	 0.292151
H	-0.2640311159	-2.1789812447	 2.5821984805	 0.085987
H	 1.2258620765	-0.2986592594	 1.9391791201	 0.082927
H	 1.1303926647	-1.5371352093	-0.7038127543	 0.243163
142.7442	176.4432	205.349	268.0062	313.4473	328.9779	375.8385	437.9788	516.4146	578.0112	651.2836	706.3276	734.5778	747.1254	781.1497	836.8912	862.6695	926.7384	935.5166	989.4263	1012.5092	1033.8709	1065.2134	1068.475	1098.0759	1107.384	1120.2362	1142.8999	1205.7677	1221.6319	1246.3502	1282.1223	1295.7883	1306.462	1323.7695	1357.504	1369.6151	1405.2879	1430.0324	1461.9279	1483.1026	1487.4424	1496.4061	3021.1526	3025.1427	3071.5172	3081.1056	3088.6635	3121.5029	3139.1987	3152.8811	3171.0301	3524.2587	3797.2614
CC12CC3C(O)C3C1N2	C[C@]12C[C@H]3[C@@H](O)[C@H]3[C@H]1N2	
InChI=1S/C7H11NO/c1-7-2-3-4(5(3)9)6(7)8-7/h3-6,8-9H,2H2,1H3	InChI=1S/C7H11NO/c1-7-2-3-4(5(3)9)6(7)8-7/h3-6,8-9H,2H2,1H3/t3-,4+,5-,6-,7+/m1/s1
