19
gdb 35269	3.10772	1.0027	0.87147	1.769	82.5	-0.2397	0.0523	0.2919	1389.1375	0.156819	-385.809335	-385.800183	-385.799239	-385.84429	34.287	
C	-0.1435752028	-1.1863262582	 0.0073212494	-0.465578
C	-0.0258766668	 0.0053865594	 0.1158642647	 0.348115
C	 0.075559089	 1.4283279712	 0.2504788173	-0.245059
C	 1.0662150999	 2.034667293	 1.2483112453	-0.32123
C	 1.3062765832	 2.1663128394	-0.2267934345	 0.135298
O	 2.2885161368	 1.4087849307	-0.8516442247	-0.24316
C	 3.5501610939	 2.015359011	-0.8538368713	 0.149132
C	 4.516773618	 1.7417760152	 0.2685254575	-0.285021
C	 4.712107509	 1.112367325	-1.0980991709	-0.292133
H	-0.2360569341	-2.2386555988	-0.0965915304	 0.193066
H	-0.8609938924	 1.9638567953	 0.124001116	 0.116706
H	 0.7506668301	 2.9034662779	 1.8152666441	 0.117948
H	 1.6858904197	 1.3273809808	 1.7846980736	 0.134377
H	 1.1381346276	 3.1437858311	-0.6811878221	 0.091654
H	 3.5602699561	 3.0073469715	-1.3062064523	 0.085336
H	 5.1858765601	 2.5349353821	 0.5840665568	 0.112516
H	 4.1788241561	 1.0872189718	 1.0629573565	 0.121708
H	 4.4862024545	 0.0561368688	-1.1891428506	 0.131228
H	 5.5174966521	 1.4640105227	-1.7326450443	 0.115098
33.5004	80.0798	106.0314	185.6442	210.9873	331.7556	356.5449	395.3654	475.078	541.4668	583.1205	628.2384	645.9461	753.9026	758.6785	812.8704	819.6116	835.4164	871.2776	960.6746	977.6571	1016.5929	1027.5651	1053.3485	1060.0271	1073.2809	1124.2878	1126.5776	1129.2203	1172.339	1192.887	1196.2921	1233.4538	1256.6313	1362.4931	1382.1217	1425.2738	1453.0418	1474.061	1501.3321	2241.1735	3089.1211	3097.6386	3138.5349	3142.689	3143.6514	3147.6643	3223.6003	3237.156	3243.3164	3506.4756
C#CC1CC1OC1CC1	C#C[C@H]1C[C@H]1OC1CC1	
InChI=1S/C8H10O/c1-2-6-5-8(6)9-7-3-4-7/h1,6-8H,3-5H2	InChI=1S/C8H10O/c1-2-6-5-8(6)9-7-3-4-7/h1,6-8H,3-5H2/t6-,8+/m0/s1
