18
gdb 49237	3.49637	1.2068	0.98053	4.1745	80.2	-0.2454	-0.0461	0.1993	1198.955	0.149464	-401.958265	-401.95057	-401.949626	-401.990745	29.612	
O	 0.0521343411	-0.021598078	 0.5358199377	-0.27807
C	 0.1732540167	 1.182603973	 0.5764885872	 0.091141
C	 1.298076285	 1.9284285392	-0.0132131997	 0.231527
C	 1.3020627876	 3.2644286986	 0.0968017188	-0.127901
C	 2.3608737402	 4.1682738282	-0.4560063228	-0.266942
C	 3.603468845	 3.4319133481	-0.9131835727	-0.035068
N	 4.2637825909	 2.6054402885	 0.1115483256	-0.331591
C	 3.6056096758	 1.9499659059	-1.0324729633	-0.036461
C	 2.3680049168	 1.1375558381	-0.7178556306	-0.307368
H	-0.5876908729	 1.8214001289	 1.0803542841	 0.063807
H	 0.4739543021	 3.7444823255	 0.6163343332	 0.09872
H	 1.9383718007	 4.7314178846	-1.3019926563	 0.120787
H	 2.6280530619	 4.9242677475	 0.2951053569	 0.123524
H	 4.2410667815	 3.9902039133	-1.595222555	 0.08398
H	 5.2712195535	 2.6172010554	-0.0205915636	 0.232074
H	 4.2510938432	 1.5179672687	-1.7943612957	 0.084606
H	 2.626528106	 0.2617640887	-0.1113164327	 0.132925
H	 1.9546187751	 0.7319376657	-1.6511526609	 0.120309
75.1157	134.9397	210.3132	304.5432	332.4782	346.6042	436.5883	450.031	564.9805	621.5041	740.9874	784.5733	798.6683	823.0952	879.4465	906.6309	964.3527	972.3892	988.9629	1032.5355	1041.5582	1061.8553	1117.7935	1155.1733	1189.2623	1201.8231	1231.2079	1234.9729	1275.7856	1327.5041	1374.5806	1400.9442	1409.6398	1435.1212	1456.003	1465.0905	1468.9275	1713.0933	1788.531	2869.2498	3000.162	3024.1799	3030.2845	3061.4282	3122.2085	3132.9024	3140.2922	3508.8683
O=CC1=CCC2NC2C1	O=CC1=CC[C@H]2N[C@H]2C1	
InChI=1S/C7H9NO/c9-4-5-1-2-6-7(3-5)8-6/h1,4,6-8H,2-3H2	InChI=1S/C7H9NO/c9-4-5-1-2-6-7(3-5)8-6/h1,4,6-8H,2-3H2/t6-,7+/m1/s1
