15
gdb 15104	5.57734	0.83124	0.76347	1.2496	76.35	-0.2356	0.0294	0.265	1448.857	0.117505	-325.428954	-325.420425	-325.419481	-325.464313	29.75	
C	-0.0144807747	-0.8857986768	-0.9378484513	-0.443158
C	 0.0785328095	 0.0658171128	-0.2120102609	 0.316181
C	 0.177838314	 1.225640919	 0.676626488	-0.492171
C	 1.4095938216	 1.99693936	 0.4999679177	 0.075764
C	 2.4261578241	 2.627188045	 0.3579546701	 0.096189
C	 3.624140493	 3.4003173119	 0.1893331019	-0.158122
C	 4.5576389634	 3.0895105004	-0.9353405052	-0.225813
N	 3.761452815	 4.3196504528	-0.9684557566	-0.307568
H	-0.0930149972	-1.7278432213	-1.5799192526	 0.201636
H	-0.6930956293	 1.8773878875	 0.5197641116	 0.162308
H	 0.1079693575	 0.8892969492	 1.7204624503	 0.164498
H	 4.0486109681	 3.8054250035	 1.1044095041	 0.117093
H	 5.624195883	 3.2362929377	-0.7908529567	 0.125587
H	 4.2883841976	 2.2676463511	-1.5918336924	 0.127094
H	 2.9603476745	 4.1903937271	-1.5822182779	 0.240482
10.5799	66.8376	130.336	178.3254	296.4676	322.3529	324.3328	437.3979	525.4181	582.7073	623.8612	650.0711	728.3161	814.4154	873.3803	932.2296	943.9982	962.1085	996.0786	1085.8863	1120.0028	1155.9714	1216.8612	1231.1282	1257.4103	1298.7236	1335.6874	1397.2679	1451.5011	1505.2617	2247.5586	2368.3236	3007.0709	3031.1602	3115.335	3138.5939	3206.5116	3503.2549	3506.1167
C#CCC#CC1CN1	C#CCC#C[C@H]1CN1	
InChI=1S/C7H7N/c1-2-3-4-5-7-6-8-7/h1,7-8H,3,6H2	InChI=1S/C7H7N/c1-2-3-4-5-7-6-8-7/h1,7-8H,3,6H2/t7-/m0/s1
