19
gdb 82406	2.40379	1.79166	1.17315	4.6998	75.62	-0.2358	0.0385	0.2742	1073.0527	0.161942	-419.231721	-419.223556	-419.222612	-419.264597	31.411	
C	 0.1853416663	 1.586562585	-0.0203713507	-0.385921
C	 0.0451345634	 0.060645241	 0.0028347554	-0.117649
C	 0.6345153859	-0.5831742762	-1.2363054819	-0.028655
N	 2.0974754015	-0.7811666381	-1.2272338192	-0.328823
C	 1.2009062116	-1.9464988162	-1.1691214991	-0.041373
C	 1.1601484736	-2.701316287	 0.1401785706	-0.160099
N	 1.0508925255	-1.8094454973	 1.2788100061	-0.317881
C	 0.6186852535	-0.513348878	 1.3060892843	 0.410277
O	 0.6501259026	 0.1366417563	 2.3358107447	-0.384931
H	 1.238878499	 1.8680959716	-0.106211557	 0.131686
H	-0.3564992167	 2.0092837823	-0.8725901618	 0.097905
H	-0.2060163396	 2.0161839264	 0.9021865244	 0.142148
H	-1.0260156507	-0.1935585873	 0.0212326351	 0.101783
H	 0.1764056083	-0.2714100103	-2.1732270008	 0.085763
H	 2.4760061761	-0.6774841868	-2.1643937908	 0.234406
H	 1.1221695885	-2.5819807679	-2.0481534933	 0.089624
H	 0.3157435275	-3.4075168877	 0.1050287149	 0.108357
H	 2.072230112	-3.3005555556	 0.2521610109	 0.117351
H	 1.4182219515	-2.1239796141	 2.1644890183	 0.246031
60.4946	144.929	204.5081	226.2385	292.7322	335.1171	423.6182	464.3812	514.2222	548.0048	595.8165	677.3548	750.0024	781.177	816.6333	860.3573	880.6261	944.6602	963.9318	1035.0891	1057.1051	1079.7144	1108.0311	1118.5321	1151.4749	1168.7055	1189.4401	1263.2163	1286.6735	1301.5198	1320.9397	1347.9373	1388.3663	1398.103	1420.9297	1468.8071	1488.556	1494.4442	1502.7199	1522.7915	1780.2035	2979.1543	2994.7777	3039.1724	3044.2363	3111.5052	3119.6303	3137.1798	3149.5517	3514.0339	3617.1492
CC1C2NC2CNC1=O	C[C@H]1[C@H]2N[C@H]2CNC1=O	
InChI=1S/C6H10N2O/c1-3-5-4(8-5)2-7-6(3)9/h3-5,8H,2H2,1H3,(H,7,9)	InChI=1S/C6H10N2O/c1-3-5-4(8-5)2-7-6(3)9/h3-5,8H,2H2,1H3,(H,7,9)/t3-,4-,5+/m0/s1
