16
gdb 13528	3.1854	1.81035	1.47426	4.3459	60.25	-0.2446	0.0118	0.2564	884.048	0.132535	-417.065068	-417.05745	-417.056506	-417.097471	28.007	
N	 0.229493409	 1.3990958026	-0.1738772078	-0.506217
C	 0.1183364332	-0.0227602935	 0.0471070818	 0.023766
C	 0.1294635297	-0.4435745171	 1.5397587325	-0.170211
N	-1.3027246061	-0.8420769764	 1.4509486822	-0.340511
H	-1.5272996892	-1.7577881304	 1.8226710935	 0.234945
H	-2.7314738372	 0.4186651317	 1.2381818667	 0.300479
C	-1.2992475891	-0.7317916386	-0.0284290783	-0.165549
C	-2.4133367626	 0.1528612109	-0.5678120209	 0.429961
O	-3.1085591165	 0.7713038275	 0.39970229	-0.373182
O	-2.603905288	 0.3335806704	-1.7415836772	-0.347549
H	 0.0805200989	 1.617663735	-1.1549121667	 0.24895
H	-0.4830647141	 1.9057495374	 0.3449528481	 0.235587
H	 0.8651834604	-0.526112518	-0.5686988448	 0.100545
H	 0.8128231369	-1.27205006	 1.7541012524	 0.112294
H	 0.3196355733	 0.3649057109	 2.2524085619	 0.118468
H	-1.2805248987	-1.6742876325	-0.5829733134	 0.098224
66.2772	114.663	147.6623	294.1361	309.6934	400.7968	413.6536	500.7384	612.0259	681.6228	757.3153	809.7122	832.8422	887.5116	892.995	940.0339	971.8544	990.7648	1031.1171	1032.7275	1126.1018	1142.2233	1179.646	1231.4627	1261.7464	1278.105	1299.7448	1344.0821	1372.3234	1427.9417	1437.4051	1514.6611	1668.6773	1865.7948	3038.0395	3070.3561	3086.2651	3101.9928	3442.1242	3488.9065	3542.6921	3567.5567
NC1C[NH2+]C1C([O-])=O	N[C@H]1CN[C@H]1C(=O)O	
InChI=1S/C4H8N2O2/c5-2-1-6-3(2)4(7)8/h2-3,6H,1,5H2,(H,7,8)	InChI=1S/C4H8N2O2/c5-2-1-6-3(2)4(7)8/h2-3,6H,1,5H2,(H,7,8)/t2-,3+/m0/s1
