20
gdb 89032	4.45936	0.69786	0.65352	2.2763	78.36	-0.244	0.0341	0.2782	1764.8841	0.168674	-440.305358	-440.294861	-440.293916	-440.343424	36.154	
C	 0.2957732054	 1.326744752	-0.5442989387	-0.420195
C	-0.0264420569	 0.0593940568	 0.206068003	 0.08009
O	 1.0284639316	-0.8934683621	 0.389755286	-0.27262
C	 0.4512660717	-0.2826056233	 1.5561712672	 0.054664
C	 1.378472461	 0.5693414793	 2.3890994673	-0.194686
N	 2.3627261528	-0.2579424795	 3.0644808111	-0.311908
C	 2.484102142	-0.3001284585	 4.4253403384	 0.408586
C	 3.544555494	-1.2565471573	 4.9486519146	-0.481379
O	 1.8033180698	 0.3818923081	 5.170595241	-0.373644
H	 1.2554092028	 1.7507756	-0.2438072512	 0.12952
H	 0.3404670973	 1.1220552698	-1.6190433764	 0.132447
H	-0.4861971075	 2.0756648613	-0.3791808134	 0.127718
H	-0.9712677049	-0.4014245867	-0.0908641191	 0.091861
H	-0.1605723178	-0.9680772164	 2.1459494296	 0.098265
H	 1.8791500147	 1.3188201855	 1.7681959379	 0.107799
H	 0.8222351395	 1.0881387295	 3.1744111144	 0.151912
H	 2.9209036295	-0.8718749569	 2.494114012	 0.253881
H	 3.0763459602	-1.9432960718	 5.6582782272	 0.152747
H	 4.0429805527	-1.8345216228	 4.1662077979	 0.112098
H	 4.2950300419	-0.681874597	 5.4982861014	 0.152845
28.7321	39.809	43.3967	86.9404	159.5786	195.024	245.3375	284.717	374.8597	438.6495	473.2318	477.7262	545.1691	627.1183	641.0521	760.4172	820.602	890.4065	925.0431	986.05	996.8783	1031.9578	1050.8238	1091.0309	1111.5767	1126.9924	1174.3165	1184.5581	1252.1917	1278.9443	1306.7724	1354.0122	1396.2236	1407.7886	1421.5182	1468.1995	1470.7859	1481.5205	1485.7702	1491.7356	1510.4788	1538.8535	1779.069	3041.2726	3050.3462	3052.6157	3079.531	3095.3015	3102.1885	3115.6482	3127.0576	3131.6107	3139.5882	3648.1423
CC1OC1CNC(C)=O	C[C@H]1O[C@H]1CNC(=O)C	
InChI=1S/C6H11NO2/c1-4-6(9-4)3-7-5(2)8/h4,6H,3H2,1-2H3,(H,7,8)	InChI=1S/C6H11NO2/c1-4-6(9-4)3-7-5(2)8/h4,6H,3H2,1-2H3,(H,7,8)/t4-,6+/m1/s1
