18
gdb 22383	4.15943	1.07529	0.94933	1.8518	75.1	-0.2444	0.0086	0.253	1251.7418	0.146441	-439.050402	-439.04193	-439.040986	-439.083384	32.519	
C	-0.1256439339	 1.5002027012	 0.0652840463	-0.485541
C	-0.0695005794	-0.0018353277	 0.0909524157	 0.414025
C	-1.200504611	-0.8284995411	-0.505970886	-0.364287
C	-0.9839783187	-2.2140542624	 0.0744610911	 0.397619
C	-0.0277658303	-2.1705128799	 1.2517647269	-0.331085
C	 0.612256609	-0.8046679479	 1.1229856321	-0.024414
O	 1.2152659719	-0.5979535183	-0.1630935824	-0.297246
N	-1.5529734077	-3.2327271422	-0.4285357147	-0.216821
O	-1.2274699706	-4.40258826	 0.2820556804	-0.394485
H	 0.7482125753	 1.9249104197	 0.5653731795	 0.131704
H	-0.139454739	 1.8694001532	-0.9660943933	 0.130712
H	-1.0294969373	 1.8660007384	 0.5638391537	 0.12234
H	-2.1708912149	-0.4221004342	-0.1916120331	 0.118748
H	-1.1858638774	-0.834050584	-1.5994466225	 0.132912
H	-0.5691074042	-2.2718326076	 2.2015099999	 0.124465
H	 0.6940475068	-2.990829248	 1.2045572527	 0.143035
H	 1.1360871601	-0.3539096299	 1.9626387905	 0.091692
H	-1.6802100889	-5.0817272094	-0.2289115167	 0.306628
66.2015	185.3557	202.0149	238.4316	292.2774	309.3652	372.4946	387.4338	410.7015	504.1582	513.1254	624.5539	697.2029	717.9594	822.7567	850.4117	896.7362	899.4284	948.6791	982.5924	991.5274	1029.099	1086.0274	1098.5567	1166.4219	1212.8387	1218.9089	1227.6017	1289.0546	1307.8346	1320.7649	1403.6855	1413.4593	1450.5058	1455.4012	1468.469	1488.0953	1499.8119	1761.2176	3026.9441	3034.1932	3036.5591	3092.2959	3093.3362	3098.0262	3124.2339	3143.1542	3820.4048
CC12CC(CC1O2)=NO	C[C@]12CC(=NO)C[C@H]1O2	
InChI=1S/C6H9NO2/c1-6-3-4(7-8)2-5(6)9-6/h5,8H,2-3H2,1H3	InChI=1S/C6H9NO2/c1-6-3-4(7-8)2-5(6)9-6/h5,8H,2-3H2,1H3/t5-,6+/m1/s1
