17
gdb 37978	2.68156	2.08397	1.47669	3.2349	66.97	-0.2351	0.075	0.3101	897.8828	0.138107	-458.904297	-458.897716	-458.896771	-458.935109	26.657	
C	-0.0500229137	 1.4300654517	-0.0394717755	 0.012102
O	 1.1943731113	 2.0611090331	 0.048156342	-0.219217
C	 1.9217053408	 2.1652509369	-1.1587085733	-0.115019
C	 2.1877855516	 0.8502916656	-1.8752799625	 0.11936
O	 2.7196042352	-0.196018454	-1.0213116905	-0.284401
C	 1.7253374889	-1.1036056234	-1.4811073252	 0.069051
C	 0.3426482864	-0.6507095974	-1.1400999769	 0.094753
O	 0.0243607721	 0.0288300713	 0.0355387927	-0.235218
C	 1.0257481846	-0.0384380478	-2.3342650043	-0.255512
H	-0.6115865009	 1.7400600292	 0.8446149104	 0.117327
H	-0.5784246981	 1.7382562103	-0.9570271153	 0.081215
H	 1.4126768876	 2.8369931572	-1.8723651203	 0.09245
H	 2.8741840456	 2.6296369582	-0.8839120267	 0.123108
H	 2.8838772799	 1.0380460788	-2.7046291534	 0.089118
H	 2.0250946368	-2.1269075063	-1.6767661413	 0.107197
H	-0.4205241638	-1.3763059519	-1.4203719914	 0.102888
H	 0.6227288659	-0.0624308115	-3.3381528087	 0.100798
161.8186	203.2186	294.8623	349.9521	396.0773	473.7787	600.0794	637.3637	692.9585	727.6819	794.9398	815.4384	871.3361	903.4195	950.096	971.1527	987.659	1037.3343	1049.0487	1060.3214	1067.4553	1085.8341	1118.8666	1150.6044	1199.253	1235.8349	1255.2872	1271.4592	1313.0206	1344.8566	1353.0656	1366.8379	1408.4505	1425.8952	1453.8271	1479.1396	1499.5782	2957.022	2966.548	3011.0274	3081.0023	3108.2815	3114.83	3178.1267	3197.2379
C1OCC2OC3C(O1)C23	C1OC[C@H]2O[C@H]3[C@@H](O1)[C@@H]23	
InChI=1S/C6H8O3/c1-3-4-5(6(4)9-3)8-2-7-1/h3-6H,1-2H2	InChI=1S/C6H8O3/c1-3-4-5(6(4)9-3)8-2-7-1/h3-6H,1-2H2/t3-,4-,5+,6-/m1/s1
