16
gdb 42864	2.41834	1.80957	1.5944	3.3812	70.05	-0.2369	-0.0291	0.2078	915.591	0.126046	-437.88824	-437.881037	-437.880093	-437.920179	27.315	
O	 0.0381706427	 0.0985609485	-0.2915380726	-0.29899
C	 0.0271629652	 1.2779563043	-0.1083841165	 0.411023
C	-1.0853165397	 2.3215773969	 0.1408505715	-0.168568
C	 0.0025111946	 3.1811829385	 0.8495450059	-0.253773
C	 1.1067365555	 2.3683970715	 0.1043118839	-0.096082
N	 1.4907405628	 2.9601640488	-1.1622299072	-0.258342
C	 0.6687907505	 3.3403101541	-2.0444785165	 0.139513
O	-0.6851635588	 3.3355228081	-2.146989248	-0.23745
C	-1.6291821251	 2.9339152035	-1.1423334474	-0.076836
H	-1.9350362615	 1.9775409085	 0.7368469235	 0.106449
H	-0.0019224692	 4.253275369	 0.6435856754	 0.116456
H	 0.0217551066	 3.0128133846	 1.9287247067	 0.117882
H	 2.0035439626	 2.0909376962	 0.6607306731	 0.098915
H	 1.0561465178	 3.7740398952	-2.9652480215	 0.133662
H	-2.2978066053	 2.2219945948	-1.6362850499	 0.13824
H	-2.2066849487	 3.8318982076	-0.8939745703	 0.1279
79.7112	138.0236	210.223	308.1879	355.9779	449.3147	462.0671	557.6828	650.9981	740.9704	767.0231	831.2022	843.5864	874.5115	910.237	949.9635	972.7432	1011.0714	1037.4576	1084.9816	1097.2981	1135.5359	1149.1611	1181.0581	1225.3816	1264.284	1296.4357	1304.3564	1329.8106	1409.6798	1431.6119	1483.8507	1499.5285	1727.2298	1894.6458	3037.9229	3069.4685	3083.8885	3088.3299	3097.1264	3131.1236	3154.3198
O=C1C2CC1N=COC2	O=C1[C@H]2C[C@@H]1N=COC2	
InChI=1S/C6H7NO2/c8-6-4-1-5(6)7-3-9-2-4/h3-5H,1-2H2	InChI=1S/C6H7NO2/c8-6-4-1-5(6)7-3-9-2-4/h3-5H,1-2H2/t4-,5-/m0/s1
