17
gdb 52073	3.30257	0.92076	0.76304	1.4028	72.35	-0.2579	-0.0343	0.2235	1447.226	0.134441	-455.117569	-455.108192	-455.107248	-455.153298	32.202	
N	 0.468775589	 0.3656484463	 1.5285481304	-0.43345
C	-0.0203600633	-0.1294043945	 0.478177326	 0.134168
O	-0.9852446704	-1.0704050766	 0.5713028839	-0.205265
C	-1.4779439447	-1.6049558931	-0.6556871224	-0.17055
C	-2.6263193246	-2.5373352783	-0.3302044427	 0.184887
C	-2.5944895838	-3.3659639536	 0.9169306013	-0.263933
N	-3.5318235554	-2.2522998989	 0.8039238106	-0.344787
C	-3.3210609937	-3.0986909639	-1.5222130812	 0.134838
O	-2.9256261162	-2.9591628308	-2.653919673	-0.267661
H	 1.1754796965	 1.0591492153	 1.293132532	 0.235725
H	 0.2488579498	 0.1201213946	-0.5565216581	 0.098336
H	-1.8294516148	-0.7990434138	-1.3122406995	 0.130854
H	-0.689569143	-2.1512318445	-1.186803283	 0.135635
H	-3.0453973376	-4.3546050046	 0.9179008518	 0.128249
H	-1.7162855786	-3.2477925817	 1.5437730219	 0.149499
H	-3.1548432097	-1.4511347764	 1.307770255	 0.258777
H	-4.2471208797	-3.6620491457	-1.2791453128	 0.094679
39.1678	69.8025	114.3483	134.9957	149.646	216.297	312.8606	333.8097	385.4533	445.3443	558.4474	652.7119	784.9923	806.9353	824.4128	909.3702	972.2921	993.8867	1017.5587	1026.8617	1044.433	1064.353	1124.5237	1138.6014	1147.8242	1255.8692	1276.3334	1290.0929	1336.2279	1345.5889	1415.207	1426.8582	1436.1907	1498.0119	1509.1866	1751.4109	1815.245	2914.972	3020.0029	3039.3574	3067.0088	3116.2151	3211.4142	3495.7327	3522.9251
N=COCC1(CN1)C=O	[NH][CH]OC[C@]1(CN1)C=O	
InChI=1S/C5H8N2O2/c6-4-9-3-5(2-8)1-7-5/h2,4,6-7H,1,3H2	InChI=1S/C5H8N2O2/c6-4-9-3-5(2-8)1-7-5/h2,4,6-7H,1,3H2/t5-/m0/s1
