23
gdb 82842	2.89033	1.62347	1.60344	0.0665	87.38	-0.267	0.0806	0.3476	1011.1339	0.210432	-351.17658	-351.169469	-351.168525	-351.207525	30.895	
C	-0.2271207027	 1.5971720668	-0.0248105257	-0.42962
C	 0.0535145319	 0.1011339421	 0.0078783734	 0.061049
C	 1.0576683363	-0.5751777139	-0.9666836759	-0.043404
C	 2.4284136336	 0.150543718	-1.0170623159	-0.220113
C	 3.0965857955	-0.2905021849	 0.306473864	-0.010117
C	 2.1852501185	 0.159330466	 1.4725967346	-0.220113
C	 0.8496620045	-0.5676632324	 1.1630190818	-0.043403
C	 1.3104511303	-1.6697132613	 0.1368903221	-0.009989
C	 2.8234642381	-1.8096098866	 0.2851576472	-0.226536
H	 0.6791760576	 2.2031366515	 0.0615706751	 0.11539
H	-0.7206148043	 1.8788466724	-0.9621692026	 0.110813
H	-0.892470473	 1.8850562516	 0.7973514686	 0.110813
H	-0.9022970226	-0.4307192094	-0.0835975879	 0.063308
H	 0.6875650059	-0.8710400033	-1.9508452503	 0.050895
H	 3.0157265139	-0.2027549414	-1.8718713895	 0.089801
H	 2.3376150938	 1.2365578993	-1.1152729232	 0.089971
H	 4.1414224583	 0.0112307916	 0.4074567914	 0.050443
H	 2.5958243213	-0.1875837625	 2.427339534	 0.089801
H	 2.0779038434	 1.2459419893	 1.5437878552	 0.089971
H	 0.2959259047	-0.8568911601	 2.059014937	 0.050894
H	 0.7004570594	-2.5704538591	 0.0804915317	 0.05536
H	 3.2958122883	-2.3201892811	-0.5609443879	 0.087394
H	 3.1228257073	-2.3139409125	 1.2102119928	 0.087393
186.3363	187.7608	250.3372	391.6774	411.8529	444.9683	517.165	559.2974	573.9846	738.9269	778.115	801.6308	842.0669	844.0676	855.3661	888.4348	917.615	942.6059	950.2734	950.8721	963.6641	986.4636	1018.1921	1048.9026	1091.3628	1098.1575	1099.9196	1121.7173	1138.7618	1157.9562	1163.108	1224.2448	1233.8673	1240.3338	1258.1608	1279.5492	1297.4695	1300.0899	1314.1647	1341.4085	1357.3099	1360.3907	1393.581	1407.088	1481.5655	1482.363	1492.2202	1507.4799	1513.9013	3014.3605	3027.6298	3036.5688	3038.2242	3041.809	3074.0328	3075.4091	3080.6356	3083.6137	3085.4817	3086.9323	3088.5088	3106.6583	3122.259
CC1C2CC3CC1C2C3	C[C@H]1[C@H]2C[C@H]3C[C@@H]1[C@@H]2C3	
InChI=1S/C9H14/c1-5-7-2-6-3-8(5)9(7)4-6/h5-9H,2-4H2,1H3	InChI=1S/C9H14/c1-5-7-2-6-3-8(5)9(7)4-6/h5-9H,2-4H2,1H3/t5-,6-,7+,8-,9+
