21
gdb 84812	3.08476	1.07931	0.86442	0.6962	89.03	-0.2392	0.0245	0.2636	1374.7075	0.182056	-349.937244	-349.928012	-349.927068	-349.97126	35.4	
C	-0.1201188376	 1.5807569255	-0.1546061641	-0.388304
C	-0.0124605013	 0.0524852946	 0.0046744946	-0.055123
C	 0.7605541825	-0.5586644048	-1.1464119345	-0.06598
C	 1.9785999536	-0.9575780288	-0.7847598836	-0.070343
C	 2.2336633562	-0.7279521361	 0.6852130638	-0.258629
C	 0.8113997981	-0.4474438217	 1.2358821494	 0.023131
C	 0.7680030372	 0.4585207732	 2.4800815516	-0.396113
C	 1.4658646054	-0.1191987247	 3.6237673389	 0.296495
C	 2.0422047986	-0.6151428663	 4.5550960751	-0.431878
H	 0.8684792371	 2.0505338498	-0.187602347	 0.118332
H	-0.6309002895	 1.8287687788	-1.090803794	 0.110841
H	-0.6906903334	 2.0364172227	 0.6612258966	 0.11305
H	-1.0340122042	-0.345955749	 0.0576263618	 0.072359
H	 0.361305715	-0.5915452	-2.1549920058	 0.08809
H	 2.7256316784	-1.3741635774	-1.4517692156	 0.090478
H	 2.7063319522	-1.5790380239	 1.1856694282	 0.112432
H	 2.9094577308	 0.127042761	 0.8380307297	 0.103737
H	 0.3858325254	-1.4155760414	 1.5223799914	 0.089162
H	 1.2070302687	 1.4364295347	 2.2464379393	 0.129551
H	-0.2764122533	 0.6519214738	 2.7585760629	 0.127415
H	 2.5503310901	-1.04281835	 5.383258421	 0.191299
78.327	93.8795	121.0797	237.8108	258.0392	264.4384	327.7029	358.9063	433.1746	463.4207	522.1962	616.2255	632.0077	676.5684	734.8162	764.828	796.5349	856.6401	899.8391	952.5974	963.9861	976.216	984.426	1011.3785	1075.3269	1084.7412	1102.2146	1124.57	1142.0076	1166.4388	1242.6652	1290.768	1296.2905	1315.412	1332.3196	1363.078	1375.0745	1381.1699	1407.2511	1470.3849	1489.4532	1496.913	1501.2979	1686.2336	2236.7559	2997.0093	3011.3125	3017.6076	3029.8554	3038.3629	3057.3083	3072.5069	3097.1745	3102.2545	3174.993	3201.5133	3507.8343
CC1C=CCC1CC#C	C[C@H]1C=CC[C@H]1CC#C	
InChI=1S/C9H12/c1-3-5-9-7-4-6-8(9)2/h1,4,6,8-9H,5,7H2,2H3	InChI=1S/C9H12/c1-3-5-9-7-4-6-8(9)2/h1,4,6,8-9H,5,7H2,2H3/t8-,9+/m0/s1
