18
gdb 108755	2.42787	1.30401	0.89285	5.1813	78.56	-0.2371	-0.021	0.2161	1288.3697	0.147101	-439.10985	-439.100821	-439.099877	-439.143862	32.976	
C	-0.039501299	 1.5398017021	-0.0164046129	-0.399475
C	 0.0446949106	 0.0155671583	 0.0496707985	 0.01946
O	 0.7683916054	-0.4761216307	-1.0884425439	-0.260708
C	 1.8392099924	-1.2371984759	-0.6723796749	 0.406564
N	 2.6635908024	-1.809046804	-1.4453179366	-0.55406
C	 1.8344918177	-1.2559679695	 0.792816745	-0.275288
C	 0.8005486662	-0.5380942378	 1.2358875615	 0.298862
C	 0.3812528854	-0.2883505562	 2.6444941639	-0.182728
O	 1.2357057089	-0.9970373749	 3.5177572986	-0.407836
H	 0.9592876346	 1.9811255069	 0.0449438433	 0.132953
H	-0.5010165256	 1.846949911	-0.9582757597	 0.136363
H	-0.6485816131	 1.9290688804	 0.8058190373	 0.118489
H	-0.9714361799	-0.4052312496	 0.005259777	 0.09983
H	 2.4217093454	-1.6270146016	-2.4205864409	 0.218837
H	 2.5683480725	-1.7856155135	 1.3791902211	 0.140475
H	 0.4073252769	 0.7973556156	 2.8441854229	 0.108363
H	-0.6731333156	-0.5961940059	 2.7652863573	 0.104945
H	 0.9749695149	-0.8004233546	 4.4219597325	 0.294954
79.0832	124.0076	157.1076	171.5858	225.4518	240.6645	257.3807	376.1744	401.9356	499.5583	544.1968	637.1747	685.7577	714.2944	823.961	861.5309	898.7985	908.4564	952.7452	1019.5269	1049.6861	1064.9088	1094.3277	1113.3394	1124.0544	1165.9794	1216.3729	1250.5915	1264.6855	1331.1284	1353.1997	1371.229	1403.5008	1469.6151	1485.9397	1495.6508	1504.3667	1706.9199	1758.9403	2941.4542	2956.7353	2990.2431	3042.0893	3115.7523	3128.9562	3273.5871	3477.78	3839.3948
CC1OC(=N)C=C1CO	C[C@H]1OC(=C[C]1CO)[NH]	
InChI=1S/C6H9NO2/c1-4-5(3-8)2-6(7)9-4/h2,4,7-8H,3H2,1H3	InChI=1S/C6H9NO2/c1-4-5(3-8)2-6(7)9-4/h2,4,7-8H,3H2,1H3/t4-/m1/s1
