22
gdb 101578	2.73379	0.87052	0.7437	2.3909	80.41	-0.2543	0.0384	0.2926	1627.1604	0.191415	-441.500148	-441.488909	-441.487965	-441.537422	39.413	
C	 0.0089762701	 1.5567398151	 0.112767535	-0.385956
C	-0.0257787045	 0.0266880737	 0.1084695801	-0.176667
C	-1.430776178	-0.555122739	-0.0304518083	 0.158175
C	-1.4456701846	-2.0776967593	-0.1158759494	-0.409363
O	-2.1670046314	-0.123104436	 1.1421558045	-0.270049
C	-3.5065024594	-0.0321078929	 1.0503631077	 0.398371
N	-4.1638675825	-0.3110064119	 0.0060731903	-0.527813
C	-4.0635338632	 0.4527390828	 2.3745864005	-0.166491
O	-5.4693017493	 0.5227653634	 2.2669858694	-0.413937
H	 1.0333115368	 1.9272948763	 0.2158932586	 0.110385
H	-0.4018723919	 1.9638713188	-0.817720378	 0.115696
H	-0.581211536	 1.9559588592	 0.9419415655	 0.123534
H	 0.5771811593	-0.3594867251	-0.7220799583	 0.09788
H	 0.4253480842	-0.3634524286	 1.0295784766	 0.100136
H	-1.934243864	-0.1345051919	-0.9069200396	 0.108683
H	-0.8788447265	-2.4097113735	-0.9915501574	 0.113735
H	-0.9895469607	-2.5187243338	 0.7765379255	 0.113564
H	-2.4699469914	-2.4426693349	-0.211478872	 0.143339
H	-5.1538856192	-0.149141708	 0.1866572711	 0.240108
H	-3.7381474732	-0.2440017745	 3.161928704	 0.11519
H	-3.6125076004	 1.4306752189	 2.6015876031	 0.114665
H	-5.8216770342	 0.8625146815	 3.0937340412	 0.296814
53.6183	64.7255	83.8862	115.8295	154.6528	179.8673	215.9519	227.1334	246.2451	314.4599	354.2877	412.444	462.3983	494.8919	570.2636	669.0953	771.7638	836.7011	880.9957	892.3901	928.9434	979.1113	1004.1097	1036.3808	1052.0141	1117.002	1120.0002	1138.4702	1148.6062	1199.969	1216.4854	1241.996	1299.3665	1326.5076	1359.1432	1396.62	1398.6771	1404.6305	1409.244	1465.068	1474.2479	1488.4377	1497.0437	1502.7247	1505.1472	1509.4418	1740.8802	2985.6234	3014.758	3026.6524	3037.3926	3040.7243	3058.2103	3071.7456	3102.7318	3109.7227	3119.6499	3138.2427	3504.8806	3849.4164
CCC(C)OC(=N)CO	CC[C@@H](C)O[C]([NH])CO	
InChI=1S/C6H13NO2/c1-3-5(2)9-6(7)4-8/h5,7-8H,3-4H2,1-2H3	InChI=1S/C6H13NO2/c1-3-5(2)9-6(7)4-8/h5,7-8H,3-4H2,1-2H3/t5-/m1/s1
