20
gdb 102226	3.0192	0.99398	0.7656	0.7741	82.14	-0.2145	-0.0015	0.213	1518.9461	0.169515	-436.507785	-436.49682	-436.495876	-436.545631	37.277	
C	 0.0421468687	 1.6274440844	 0.1333147191	-0.328058
N	 0.3135805059	 0.1973567065	 0.0690526802	-0.349101
C	 0.3103087415	-0.5156011603	-1.1029533369	 0.440882
N	-0.1168050855	-1.86617967	-0.9622517006	-0.36731
C	-0.6410350615	-2.5260620023	 0.1153995656	 0.431171
C	-1.0139411603	-3.9708062252	-0.1683752017	-0.491739
O	-0.7938738735	-2.0220059264	 1.2202082002	-0.379778
N	 0.653239117	-0.2116919427	-2.2940834065	-0.338882
C	 1.2980010169	 1.0462826571	-2.6083302369	-0.324163
H	 0.8709961781	 2.2267676432	-0.2478556716	 0.134563
H	-0.8671458734	 1.9096450884	-0.4136913167	 0.125189
H	-0.1006914853	 1.8893488587	 1.1839238356	 0.131812
H	-0.0643981715	-0.3435575844	 0.842499485	 0.269914
H	-0.0150865333	-2.362666412	-1.8351491275	 0.258619
H	-0.1270643126	-4.5503007318	-0.4451290094	 0.1476
H	-1.4565452927	-4.3989868922	 0.7300421523	 0.154711
H	-1.7278814375	-4.0373916462	-0.995442068	 0.144682
H	 0.6096638002	 1.9024835636	-2.6117942018	 0.11162
H	 2.1240852591	 1.2852898597	-1.9229762456	 0.11289
H	 1.7196608997	 0.975282672	-3.6158541949	 0.115378
20.9106	64.2033	83.6896	116.3703	130.035	187.8001	199.9054	253.7762	268.9389	321.1957	370.1719	389.9693	578.9084	584.2089	672.505	717.6884	733.7437	767.7867	863.6535	957.2624	996.3533	1052.7015	1080.8446	1115.0228	1129.1902	1149.9099	1171.261	1224.4034	1253.1636	1302.3543	1388.0233	1438.0169	1465.6387	1466.8887	1483.2986	1484.7652	1498.8917	1508.9195	1513.1378	1523.8232	1606.3777	1747.8741	1769.0517	2984.7522	3015.0357	3038.118	3046.1215	3077.821	3099.704	3109.6225	3131.8554	3166.6949	3462.9017	3623.2303
CNC(NC(C)=O)=NC	CNC(=NC)NC(=O)C	
InChI=1S/C5H11N3O/c1-4(9)8-5(6-2)7-3/h1-3H3,(H2,6,7,8,9)	InChI=1S/C5H11N3O/c1-4(9)8-5(6-2)7-3/h1-3H3,(H2,6,7,8,9)
