19
gdb 84851	2.49615	1.80645	1.35365	2.4917	75.67	-0.2464	0.0142	0.2606	1002.3652	0.161696	-423.018273	-423.010836	-423.009892	-423.049912	30.129	
O	 0.392775667	 0.8878186219	-0.9070509612	-0.437636
C	 0.0821072849	-0.209083495	-0.0466888641	 0.092961
C	 0.7789672386	-0.0148942511	 1.282874522	-0.09256
C	 0.2701475765	 0.2355787947	 2.4915043132	-0.051227
C	-1.1682155958	 0.3503716879	 2.9272325738	-0.26635
C	-2.2135652852	 0.0029719508	 1.8788651318	 0.1149
C	-1.9701258821	-1.3131953779	 1.109278995	-0.303367
C	-1.4300691822	-0.3787487178	 0.0137372869	 0.080889
O	-2.0260812333	 0.7776502659	 0.6618787129	-0.312418
H	-0.0521876479	 1.6506315716	-0.5147056773	 0.286547
H	 0.5068076929	-1.0919942898	-0.5438326685	 0.08742
H	 1.8628491606	-0.0211957629	 1.1868119779	 0.094436
H	 0.9821668672	 0.3998009699	 3.2993251251	 0.091127
H	-1.3323748991	-0.2876217118	 3.8084452836	 0.109173
H	-1.3461080962	 1.3783051108	 3.2762918334	 0.120235
H	-3.2212340141	 0.1499049118	 2.2819564935	 0.078305
H	-1.2756738294	-2.0319107461	 1.5467258485	 0.112021
H	-2.8947810866	-1.8157292207	 0.822224591	 0.111179
H	-1.8192259756	-0.5054906222	-1.0013307477	 0.084366
101.394	213.9342	277.5529	314.3186	343.7111	389.0346	453.8701	457.2479	508.6826	651.4545	716.224	771.142	808.228	853.6107	882.1508	889.259	900.8211	960.2625	977.493	1007.0365	1021.1028	1034.5624	1068.6813	1093.2018	1122.2052	1148.6018	1210.5063	1235.5019	1244.0002	1260.4102	1276.9316	1335.4395	1343.5888	1369.553	1375.8135	1402.4138	1417.2845	1440.2888	1453.6847	1489.2687	1724.4191	2998.6805	3020.1615	3025.3485	3049.1192	3062.0479	3083.8926	3127.0329	3139.5839	3154.8849	3770.7662
OC1C=CCC2CC1O2	O[C@H]1C=CC[C@@H]2C[C@H]1O2	
InChI=1S/C7H10O2/c8-6-3-1-2-5-4-7(6)9-5/h1,3,5-8H,2,4H2	InChI=1S/C7H10O2/c8-6-3-1-2-5-4-7(6)9-5/h1,3,5-8H,2,4H2/t5-,6+,7-/m1/s1
