22
gdb 59070	2.03633	1.42508	1.05155	1.0466	89.36	-0.2212	0.0362	0.2574	1275.8053	0.190778	-367.15901	-367.148429	-367.147485	-367.194082	39.472	
C	-1.8205473987	 0.1917116234	 0.9800250668	-0.388795
C	-0.4721555917	 0.1942935437	 0.2553143829	 0.080193
C	-0.0191134853	 1.616851119	-0.0829514212	-0.384693
N	 0.5299283595	-0.4086819718	 1.1430812438	-0.100922
C	 0.7116928586	-1.8515687935	 1.2279823179	 0.001508
C	-0.0775881841	-2.8673406185	 0.431661305	-0.423873
C	 1.7654212119	-0.9860545115	 0.5803061197	-0.223441
C	 1.9927433731	-1.0604608135	-0.8374651919	 0.360639
C	 2.2171443781	-1.1032138691	-2.0195159076	-0.481247
H	-1.7479654546	 0.7473337183	 1.9203569694	 0.122847
H	-2.5886953573	 0.6611516101	 0.35760844	 0.111094
H	-2.1498010345	-0.8250481395	 1.213025793	 0.112906
H	-0.5749225501	-0.3624913358	-0.6881185583	 0.072672
H	 0.1119042476	 2.2017946074	 0.8329480056	 0.118668
H	 0.9305545134	 1.606363582	-0.6245503416	 0.124081
H	-0.763147967	 2.11548339	-0.7121151948	 0.107292
H	 0.9372578442	-2.1794640499	 2.2429935311	 0.093295
H	-0.1832475412	-2.5883876656	-0.6176976233	 0.138265
H	 0.4371930607	-3.833254252	 0.4661358143	 0.125184
H	-1.0751254972	-3.0106506479	 0.8594468446	 0.124321
H	 2.6579256827	-0.7445733959	 1.1548871629	 0.111309
H	 2.4163199421	-1.1434000393	-3.0617750186	 0.198697
75.3653	111.1441	146.9614	159.5189	186.4039	215.4234	243.6434	258.8574	335.6126	346.6901	366.7386	445.3023	522.9083	588.189	608.3154	634.761	658.2287	698.1814	791.5254	832.5957	900.0295	933.6216	958.4014	977.2076	1017.0808	1039.1155	1094.7608	1133.3412	1154.4717	1165.3984	1182.67	1198.0447	1330.2976	1353.1628	1360.8066	1368.5707	1396.3397	1408.663	1416.1832	1419.5664	1482.5703	1486.1989	1490.8619	1494.2238	1499.283	1513.1355	2225.2708	2987.57	3036.4752	3040.67	3042.8783	3095.4117	3098.8391	3107.8127	3112.8118	3114.2833	3115.5812	3119.7554	3141.4694	3502.7743
CC(C)N1C(C)C1C#C	CC(C)N1[C@@H](C)[C@H]1C#C	
InChI=1S/C8H13N/c1-5-8-7(4)9(8)6(2)3/h1,6-8H,2-4H3	InChI=1S/C8H13N/c1-5-8-7(4)9(8)6(2)3/h1,6-8H,2-4H3/t7-,8+,9?/m0/s1
