19
gdb 37560	3.69853	1.65087	1.42742	1.5462	79.2	-0.2429	0.0862	0.3291	957.5493	0.161467	-385.794164	-385.787484	-385.78654	-385.82525	27.533	
C	-0.0788967345	 1.6152577675	-0.0416874309	-0.266394
C	 1.4226099946	 1.2722946424	-0.0257201721	-0.06854
C	 1.2393618872	 0.1178920701	 1.0005140012	-0.097336
C	-0.0485683189	 0.0774493262	 0.0525200674	-0.164808
C	 1.2049974521	-0.0408976258	-0.8871527037	 0.378598
C	 1.8218808638	-0.2859134804	-2.2375853358	-0.41733
C	 3.3014066006	-0.5496836764	-1.7565450317	-0.060785
O	 3.3142768961	-0.7592870074	-0.3212186361	-0.292849
C	 1.9667764141	-0.8951537937	 0.091591144	 0.091938
H	-0.4651307558	 2.1485352403	 0.8327215251	 0.092701
H	-0.4863867513	 2.0429386109	-0.9632546086	 0.092564
H	 2.2823248295	 1.9382584576	-0.0881594344	 0.077877
H	 1.2160777018	 0.2099764055	 2.0876500704	 0.071524
H	-0.8764427525	-0.629057454	 0.1243024692	 0.075274
H	 1.4068478071	-1.1747765447	-2.7234576013	 0.110242
H	 1.7688423319	 0.5489709234	-2.9406404914	 0.109436
H	 3.7256051805	-1.4291845418	-2.2556078728	 0.102535
H	 3.9480868881	 0.3080481988	-1.9693239621	 0.108873
H	 1.6824344655	-1.9506144188	 0.2089867536	 0.056479
86.8173	220.5589	267.1497	320.9971	485.9105	544.1801	661.4517	707.5766	723.591	793.8947	834.5203	856.6518	876.2482	892.0597	907.5076	913.8434	948.229	964.8288	980.3262	1010.4182	1042.672	1055.1902	1070.5615	1095.9707	1136.5936	1147.2807	1161.8304	1166.0506	1197.0809	1203.524	1217.7	1236.561	1257.5072	1278.1689	1286.3307	1330.9242	1373.6744	1388.1657	1489.3532	1508.463	1519.7448	3000.0771	3026.0735	3038.6526	3051.8181	3067.5843	3095.6865	3096.9079	3106.1862	3108.9382	3123.9248
C1C2C3C1C21CCOC31	C1[C@H]2[C@H]3[C@@H]1[C@]12CCO[C@@H]31	
InChI=1S/C8H10O/c1-2-9-7-6-4-3-5(6)8(1,4)7/h4-7H,1-3H2	InChI=1S/C8H10O/c1-2-9-7-6-4-3-5(6)8(1,4)7/h4-7H,1-3H2/t4-,5+,6-,7-,8+/m0/s1
