23
gdb 122301	4.79545	0.73371	0.70411	0.7761	87.29	-0.2398	0.092	0.3318	1738.822	0.204819	-388.258692	-388.248971	-388.248027	-388.29419	36.069	
C	 0.1624198821	 1.4689001975	-0.220698591	-0.382427
C	-0.0649087195	-0.0160009554	 0.0729710506	-0.183031
C	 0.7901619277	-0.516962503	 1.2278114821	-0.063424
O	 0.520790178	-1.901107071	 1.4208781601	-0.290972
C	 1.2517622362	-2.4761875944	 2.4366021629	 0.461954
C	 2.6980159282	-2.8568342518	 2.2673546743	-0.332904
C	 1.6698176258	-3.9304987958	 2.5621008802	-0.135992
C	 1.3281044783	-3.9113252341	 4.0575365467	-0.217299
C	 0.8671019138	-2.4197190174	 3.9225016855	-0.297994
H	 1.2061204979	 1.6681085853	-0.4879896286	 0.116111
H	-0.4625926628	 1.805110118	-1.0529577008	 0.116872
H	-0.0805016444	 2.0902710142	 0.6484600162	 0.116041
H	-1.1183175126	-0.1995910001	 0.3134280875	 0.106344
H	 0.1618593161	-0.6189678246	-0.8139123544	 0.105799
H	 1.8604369323	-0.3706989888	 1.0126365309	 0.089421
H	 0.5623840874	 0.0473496898	 2.1463544285	 0.089545
H	 3.0401611722	-2.8352009582	 1.2374882871	 0.112078
H	 3.4535304311	-2.5943765841	 3.005938586	 0.098638
H	 1.5029936969	-4.7545487962	 1.8796251932	 0.091693
H	 0.5063504522	-4.5781979048	 4.3263585758	 0.104953
H	 2.1678911658	-4.0981151144	 4.7347460419	 0.095626
H	 1.3791644793	-1.6756173673	 4.5412206552	 0.09087
H	-0.2120203821	-2.3145052534	 4.0568767302	 0.108097
50.5655	62.1602	104.2921	136.8269	221.662	231.1894	304.3482	324.0612	376.7346	435.7253	480.1992	662.2633	720.7872	764.628	788.7371	857.4931	896.357	899.6033	914.5469	931.3074	959.6314	962.6472	1013.4033	1020.1965	1045.6147	1066.1732	1085.7513	1108.878	1148.2724	1154.3224	1191.5749	1216.1586	1221.8439	1230.3182	1265.0256	1267.2414	1302.2068	1314.6303	1333.1623	1377.0199	1412.0186	1434.949	1477.5531	1480.0031	1492.2698	1500.3555	1507.6863	1510.9268	1527.0179	2969.5335	3000.4929	3031.6435	3038.7941	3042.6961	3051.3198	3071.7361	3095.974	3098.6213	3099.8889	3107.7673	3116.6589	3188.7669	3200.7418
CCCOC12CC1CC2	CCCO[C@]12C[C@H]1CC2	
InChI=1S/C8H14O/c1-2-5-9-8-4-3-7(8)6-8/h7H,2-6H2,1H3	InChI=1S/C8H14O/c1-2-5-9-8-4-3-7(8)6-8/h7H,2-6H2,1H3/t7-,8-/m1/s1
