16
gdb 29555	2.3723	1.77985	1.02325	6.9538	76.63	-0.1981	-0.0087	0.1895	1109.0666	0.12514	-437.943594	-437.935297	-437.934353	-437.976155	31.541	
C	-0.0157599112	 1.5000421955	 0.0251368942	-0.470458
C	-0.0019395646	-4.182*^-6	-0.01904009	 0.126821
C	-0.0390576721	-0.6932705135	-1.1880833044	-0.060911
N	-0.0257130616	-2.0562410162	-1.2159668293	-0.328473
C	 0.025702683	-2.7881975759	-0.053543595	-0.122621
C	 0.0651060735	-2.170283095	 1.1563284471	 0.213043
O	 0.1168638442	-2.8347456346	 2.3391595228	-0.413313
C	 0.0539253962	-0.7008209717	 1.2653568812	 0.263968
O	 0.0887980845	-0.1184651899	 2.3458250574	-0.388946
H	 0.874806037	 1.877429484	 0.5386838366	 0.141549
H	-0.0585058188	 1.9360008919	-0.9769570474	 0.102079
H	-0.8722366076	 1.859326531	 0.6053242954	 0.141561
H	-0.0807935957	-0.207298791	-2.1561987	 0.12294
H	-0.0553435917	-2.5375419549	-2.0976880652	 0.266256
H	 0.0325967982	-3.8662634946	-0.1696701622	 0.11322
H	 0.1203396366	-3.7844357332	 2.1774945886	 0.293286
106.6716	140.4184	249.6536	276.4092	298.1893	321.1209	366.5789	391.3718	471.9015	489.8716	515.7999	558.3611	573.2378	688.8504	790.0775	808.401	867.0716	879.1992	969.0211	1035.6088	1063.6913	1105.8505	1200.2198	1247.2979	1267.0113	1323.7971	1396.7216	1415.0882	1446.3617	1466.05	1489.7206	1560.8923	1648.3476	1682.714	1709.2934	3035.1137	3091.4681	3114.496	3186.0972	3195.1598	3674.7767	3812.0292
CC1=CNC=C(O)C1=O	Cc1c[nH]cc(O)c1=O	
InChI=1S/C6H7NO2/c1-4-2-7-3-5(8)6(4)9/h2-3,8H,1H3,(H,7,9)	InChI=1S/C6H7NO2/c1-4-2-7-3-5(8)6(4)9/h2-3,8H,1H3,(H,7,9)
