18
gdb 35340	3.6764	1.36022	1.21519	2.0317	84.28	-0.2127	0.0324	0.2452	1061.393	0.14758	-364.616194	-364.608792	-364.607848	-364.647685	30.424	
C	-0.1002995037	-1.3071063146	-0.0421500882	-0.466986
C	-0.0484788127	-0.1052323123	-0.0090007768	 0.361253
C	-0.0312867005	 1.3392486582	 0.0169039988	-0.258506
C	-0.359179053	 2.0586867298	 1.4276690698	-0.354535
C	 1.1493620256	 2.4058538625	 1.4690366207	 0.25155
C	 2.4233978712	 3.3105845792	 1.3747082846	-0.250494
N	 2.8100830734	 2.0698262017	 0.4973192667	-0.180794
C	 2.1786541371	 1.259657995	 1.6358459731	-0.196601
C	 1.318084607	 2.2119978241	-0.0027423132	 0.024059
H	-0.129196808	-2.3681792486	-0.0723523014	 0.199222
H	-0.6824460774	 1.7081895244	-0.7810760879	 0.119007
H	-1.02226172	 2.9132035162	 1.2728351814	 0.114925
H	-0.7563396941	 1.4195198155	 2.2188659548	 0.118502
H	 2.3391381598	 4.2415452308	 0.8084773468	 0.108337
H	 3.0813197819	 3.4176111009	 2.2423488505	 0.107079
H	 2.7772134763	 1.2563812626	 2.5513726956	 0.093502
H	 1.89848116	 0.2479066108	 1.3468510795	 0.130551
H	 1.2146176972	 3.0547459937	-0.6898435447	 0.079931
134.0791	139.2104	283.7116	322.7793	375.5038	454.5533	496.0449	577.7369	602.3678	617.7178	633.2427	684.2851	744.9475	770.4865	824.2405	857.7536	887.0143	891.4679	916.0094	983.5649	1004.2399	1020.0594	1061.868	1070.8541	1117.9683	1155.5278	1159.5419	1183.959	1194.818	1210.1999	1219.527	1247.1374	1286.2667	1302.6487	1363.2363	1471.3313	1507.0662	1552.0904	2227.2847	3047.5498	3057.5702	3061.0041	3066.3155	3081.6615	3124.003	3132.0696	3155.6864	3502.1055
C#CC1CC23CN(C2)C13	C#C[C@H]1C[C@@]23CN(C2)[C@@H]13	
InChI=1S/C8H9N/c1-2-6-3-8-4-9(5-8)7(6)8/h1,6-7H,3-5H2	InChI=1S/C8H9N/c1-2-6-3-8-4-9(5-8)7(6)8/h1,6-7H,3-5H2/t6-,7-/m0/s1
