20
gdb 82610	2.3506	1.80908	1.41261	2.4448	78.41	-0.2109	0.0654	0.2763	1014.602	0.171775	-403.085714	-403.07746	-403.076516	-403.118417	32.405	
C	-0.104116485	 1.590963355	 0.1010436813	-0.41192
C	 0.0255379006	 0.0913998342	-0.0206718067	 0.027995
C	 0.5014257844	-0.679959216	-1.206957237	-0.048518
C	 1.4515382542	-0.0753059773	-2.2516317966	-0.266429
C	 2.8578229808	-0.1642986907	-1.6304444652	-0.120971
C	 3.2478898923	 0.8836490609	-0.6198862591	 0.08398
O	 2.6580246048	 2.1443652691	-0.5469644545	-0.407811
C	 2.6109064246	-0.4087303704	-0.1430937026	-0.030457
N	 1.2214057213	-0.77862763	 0.0776948458	-0.129173
H	 0.484404558	 2.1446824807	-0.6230960302	 0.135385
H	-1.1626306302	 1.846382397	-0.0249110283	 0.105518
H	 0.1998395115	 1.927696525	 1.0977399307	 0.123532
H	-0.7809118342	-0.4045575551	 0.5226133701	 0.088822
H	-0.0548142671	-1.5639537682	-1.5184677552	 0.080421
H	 1.4113402969	-0.6508492541	-3.1794345071	 0.106412
H	 1.1857523423	 0.9572207191	-2.5042116415	 0.103915
H	 3.6332240916	-0.6762655923	-2.191408052	 0.083559
H	 4.3138146787	 0.9018198679	-0.3818665579	 0.087976
H	 3.0012273414	 2.6667926087	-1.2803126596	 0.288818
H	 3.2795192029	-1.0382317133	 0.4362183358	 0.098945
79.3291	126.4645	192.787	238.3057	282.6611	301.9805	412.6239	502.8794	544.4662	618.9463	659.4349	666.9671	722.5328	737.3432	776.1651	814.8452	853.2125	931.639	945.5635	987.7904	1032.384	1042.1592	1059.1972	1085.5082	1118.1918	1125.03	1142.1507	1162.6858	1169.4233	1203.7281	1257.8454	1286.1336	1301.8909	1332.2757	1338.1388	1364.0159	1391.9486	1418.6866	1435.7013	1450.6189	1484.6943	1487.9398	1502.7245	3037.0339	3044.7833	3068.9344	3076.4521	3090.044	3091.5313	3105.7988	3144.537	3156.052	3201.0312	3795.4085
CC1C2CC3C(O)C3N12	C[C@H]1[C@H]2C[C@H]3[C@@H](O)[C@H]3N12	
InChI=1S/C7H11NO/c1-3-5-2-4-6(7(4)9)8(3)5/h3-7,9H,2H2,1H3	InChI=1S/C7H11NO/c1-3-5-2-4-6(7(4)9)8(3)5/h3-7,9H,2H2,1H3/t3-,4+,5+,6-,7+,8?/m0/s1
