21
gdb 88103	2.42016	1.48095	1.05345	1.7	85.85	-0.2283	0.0208	0.2492	1224.3836	0.181589	-387.103541	-387.094229	-387.093285	-387.138035	34.826	
C	-0.0655563083	 1.5640990549	 0.015310286	-0.421182
C	-0.1311843967	 0.0654597111	 0.16313961	-0.004107
O	 1.0370949815	-0.678324715	-0.2009147973	-0.304226
C	 0.6257698728	-0.6863604582	 1.1838331507	 0.350106
C	 1.5573890346	-0.0500249872	 2.2223070904	-0.318019
C	 1.5232715776	-1.0054632105	 3.4453490669	-0.271578
C	 0.6750281426	-2.1610280226	 2.9788338484	-0.174694
C	 0.1748799025	-1.9949925226	 1.7520122519	 0.277304
C	-0.6849368825	-2.9391884066	 0.9727780913	-0.50908
H	 0.8820227292	 1.9599552092	 0.3876141284	 0.127635
H	-0.1608399216	 1.8460094058	-1.0387025248	 0.127683
H	-0.8854698766	 2.0406096878	 0.5642143335	 0.119472
H	-1.0593709818	-0.3804355683	-0.2016967132	 0.078493
H	 2.5614605837	 0.0255269196	 1.7967511987	 0.122162
H	 1.2434604347	 0.9623073054	 2.4894813885	 0.106007
H	 2.5257437659	-1.3317262116	 3.7480621246	 0.108442
H	 1.0863805913	-0.5196434958	 4.3272613557	 0.107139
H	 0.496213839	-3.0327901229	 3.6002199949	 0.088587
H	-0.7606699729	-3.9104435503	 1.4679180185	 0.121342
H	-1.7022081959	-2.5480748914	 0.8452225991	 0.12482
H	-0.2721807892	-3.0873065207	-0.0310226424	 0.143694
33.7354	151.9697	166.5801	174.7928	205.0192	226.3036	272.5245	351.5267	441.5559	479.0241	510.8483	594.5752	644.7141	737.4714	754.1701	815.5449	864.3596	907.3011	923.7433	959.5765	1000.9344	1019.6425	1041.1036	1047.2803	1072.5262	1096.6112	1132.0455	1173.4683	1188.2608	1234.8364	1249.5245	1283.9941	1320.4039	1339.3009	1363.4133	1406.5706	1409.496	1462.2754	1477.9775	1480.3696	1489.0269	1494.4593	1501.81	1504.4441	1720.9307	3020.7958	3024.499	3035.4643	3043.8749	3065.0468	3076.9354	3082.1993	3096.9038	3106.6917	3118.7962	3129.2375	3181.9835
CC1OC11CCC=C1C	C[C@H]1O[C@]21CCC=C2C	
InChI=1S/C8H12O/c1-6-4-3-5-8(6)7(2)9-8/h4,7H,3,5H2,1-2H3	InChI=1S/C8H12O/c1-6-4-3-5-8(6)7(2)9-8/h4,7H,3,5H2,1-2H3/t7-,8-/m1/s1
