20
gdb 121436	2.25536	0.94166	0.69605	0.5358	87.	-0.2491	-0.0232	0.226	1664.9758	0.167711	-403.118852	-403.108095	-403.107151	-403.155708	37.645	
C	 0.0990099516	 1.5357554221	-0.0829114594	-0.379641
C	 0.0352821404	 0.0111011019	 0.0290467649	-0.153269
C	-1.4054937213	-0.5166854697	 0.0436984936	-0.152211
N	-1.4177330259	-1.9668878116	 0.0535329857	-0.329154
C	-1.9578902349	-2.6135997742	 1.0010856232	 0.274632
O	-1.9626107821	-3.9649379391	 1.0328895652	-0.239547
C	-1.3183676368	-4.6148422803	-0.062735766	-0.230865
C	-2.6316913521	-2.0732174922	 2.1535820365	 0.288932
C	-3.1872404453	-1.5912538381	 3.1047579382	-0.434126
H	 1.1345780695	 1.8889104181	-0.0889759783	 0.113622
H	-0.3771482925	 1.8870419425	-1.0053060321	 0.114502
H	-0.4118765222	 2.0198178187	 0.7569192985	 0.115219
H	 0.5700866123	-0.4555835532	-0.8059192073	 0.105168
H	 0.5407891761	-0.3204145755	 0.9443499495	 0.098173
H	-1.9537881176	-0.0776715607	 0.8899443709	 0.098998
H	-1.9099257245	-0.1870134307	-0.8749917206	 0.10401
H	-1.4167183793	-5.6830132355	 0.1344569803	 0.128002
H	-1.7987517295	-4.3521124014	-1.0096010296	 0.135023
H	-0.2641942897	-4.3292175105	-0.1213001069	 0.134559
H	-3.680787246	-1.1733679005	 3.9478426536	 0.207972
36.3654	84.5293	96.4173	136.5167	155.1447	191.2425	232.7959	241.6378	291.461	322.6341	375.1013	446.4023	550.6346	620.0669	648.0503	660.6855	724.0785	757.5446	803.9686	898.8158	900.0187	1033.6078	1046.1651	1093.3754	1127.2453	1176.4493	1177.8565	1221.795	1267.9321	1289.8322	1317.2389	1332.9182	1395.6824	1413.5216	1472.289	1475.9078	1488.156	1497.1315	1499.336	1499.8938	1513.8343	1709.6089	2231.2915	2992.9491	3027.9916	3029.8071	3035.1589	3043.1001	3069.0369	3097.9292	3104.1218	3113.4873	3149.9191	3498.1003
CCCN=C(OC)C#C	CCCN=C(OC)C#C	
InChI=1S/C7H11NO/c1-4-6-8-7(5-2)9-3/h2H,4,6H2,1,3H3	InChI=1S/C7H11NO/c1-4-6-8-7(5-2)9-3/h2H,4,6H2,1,3H3
