15
gdb 25037	4.15202	1.11936	0.94762	4.935	68.74	-0.2314	0.0118	0.2432	1201.1488	0.113214	-457.801382	-457.794033	-457.793089	-457.833802	27.546	
O	 0.0764086518	 0.0508782316	-0.1875682221	-0.370766
C	 0.0016628012	 1.2314028775	-0.0765730134	 0.498793
O	-1.1173097105	 1.9466417943	 0.228822651	-0.20866
C	-0.757180276	 3.2859479752	 0.2560879366	-0.171148
C	 0.5416709575	 3.3967956082	-0.0231303168	 0.350954
O	 1.037376109	 2.1173181132	-0.2354186907	-0.25054
C	 1.4643398378	 4.5223967946	-0.1376930356	-0.111618
C	 2.910411114	 4.3810026823	 0.3014076365	-0.267061
C	 2.5867543856	 4.4976719567	-1.1591983408	-0.267064
H	-1.5281697595	 3.999110915	 0.4841271068	 0.163253
H	 0.9863812876	 5.4786236063	 0.0445993636	 0.103372
H	 3.3584324468	 5.2283459788	 0.8073017947	 0.124879
H	 3.2209732581	 3.4114959576	 0.6723239375	 0.14036
H	 2.6801673944	 3.6064468496	-1.7682647142	 0.140367
H	 2.8090954522	 5.4263698192	-1.6717678431	 0.124878
81.5635	134.0945	150.8742	249.8334	393.2604	415.2375	530.1825	627.9841	656.6059	725.4519	760.8753	780.1854	794.1117	825.2058	904.6713	908.0167	930.6607	964.8727	1057.3473	1064.7535	1084.9497	1091.3655	1121.6954	1141.2752	1203.6041	1210.9607	1256.1215	1338.6441	1401.9285	1466.0616	1499.2563	1736.1129	1938.8805	3144.7172	3147.6321	3173.7956	3229.4084	3243.8033	3309.3759
O=C1OC=C(O1)C1CC1	O=c1occ(o1)C1CC1	
InChI=1S/C6H6O3/c7-6-8-3-5(9-6)4-1-2-4/h3-4H,1-2H2	InChI=1S/C6H6O3/c7-6-8-3-5(9-6)4-1-2-4/h3-4H,1-2H2
