16
gdb 45957	3.01562	1.64104	1.18119	1.7448	72.74	-0.2514	-0.0108	0.2405	1013.978	0.126524	-434.047419	-434.040051	-434.039106	-434.079661	28.151	
N	-0.0359249393	 1.2710222186	 0.4211315417	-0.481492
C	 0.0193958243	 0.0523334081	 0.0698372202	 0.309084
C	 1.2475657952	-0.7684340904	-0.2503966622	-0.165004
O	 1.3379992854	-1.8819611083	 0.6597202435	-0.251712
C	 0.2394913001	-2.6872047265	 0.7896104643	 0.389608
N	 0.3049678507	-3.8468733066	 1.286390265	-0.514984
C	-1.0649288484	-2.1272110647	 0.3152716934	-0.110126
C	-1.8421756396	-1.1524361109	 1.1541323811	-0.228277
N	-1.1491728855	-0.7163302186	-0.0467509686	-0.078364
H	 0.8970936397	 1.6831036148	 0.4291236036	 0.222737
H	 1.2154972496	-1.1366724449	-1.2842346287	 0.133406
H	 2.1634108294	-0.1940685846	-0.1062332066	 0.132776
H	 1.2703297938	-4.0765845827	 1.5310008309	 0.227119
H	-1.6245253236	-2.8047494757	-0.3222221413	 0.134034
H	-2.9261875447	-1.1592900816	 1.1017999064	 0.137776
H	-1.4212102171	-0.8483622959	 2.1080294274	 0.14342
57.0695	169.1031	215.0998	275.3968	390.9887	405.0807	465.6916	531.9002	631.8411	665.0114	718.5199	766.1535	797.0494	868.2774	904.4047	938.8242	953.9328	976.8604	1027.0655	1060.8879	1080.6973	1093.9235	1112.5664	1139.4502	1166.7286	1248.2567	1282.1221	1303.4095	1370.8146	1403.1387	1424.3774	1492.1924	1509.3262	1732.7571	1756.2227	3024.4825	3122.3053	3128.7394	3160.4494	3216.0107	3469.1228	3481.5815
N=C1COC(=N)C2CN12	[NH][C]1CO[C]([NH])[C@H]2CN12	
InChI=1S/C5H7N3O/c6-4-2-9-5(7)3-1-8(3)4/h3,6-7H,1-2H2	InChI=1S/C5H7N3O/c6-4-2-9-5(7)3-1-8(3)4/h3,6-7H,1-2H2/t3-,8?/m1/s1
