17
gdb 116418	2.21267	1.65074	1.20016	4.2495	65.14	-0.2638	-0.0008	0.263	1079.1091	0.135888	-496.116185	-496.107626	-496.106682	-496.14989	30.452	
C	-0.0272767513	 1.1107575864	-0.6969735255	-0.247095
O	-0.2745997367	-0.2839359739	-0.5781708584	-0.24249
C	-1.3395217311	-0.5938397282	 0.280375869	 0.04117
O	-2.5918125505	-0.1963149604	-0.2243632054	-0.265999
C	-3.171960221	-1.0578665492	-1.2060729573	-0.077279
C	-2.2311113272	-2.1744629405	-1.6231523121	-0.102185
O	-1.7635774926	-2.8788152306	-0.4582912474	-0.231473
C	-1.2640122816	-2.1082801092	 0.5328705018	 0.454646
O	-0.8278322976	-2.5882275776	 1.5387266178	-0.33461
H	 0.8243552856	 1.2234192556	-1.3700417546	 0.135683
H	-0.8947692022	 1.6372550383	-1.1106334572	 0.127429
H	 0.2238091367	 1.5491945247	 0.278873216	 0.120366
H	-1.2318042598	-0.0774947437	 1.2410537897	 0.108007
H	-4.0875112666	-1.4872913918	-0.7800209753	 0.122528
H	-3.4477519946	-0.4569099766	-2.0802874329	 0.118874
H	-2.756822857	-2.9132495936	-2.2308769888	 0.130089
H	-1.3742211626	-1.7879389195	-2.1799166494	 0.142339
91.5689	99.1257	128.9103	182.6417	194.5776	305.3462	327.6672	405.4842	441.5093	526.9076	606.13	710.6588	756.7868	846.1673	897.2316	937.2113	983.2611	1020.1901	1092.6198	1104.167	1124.7822	1153.2078	1177.8847	1209.8315	1240.7101	1263.3535	1309.9499	1355.5576	1384.5062	1411.7522	1425.3811	1473.032	1484.3403	1501.7776	1510.1367	1512.5901	1874.7523	3006.0992	3024.3631	3056.4764	3064.5703	3074.6474	3080.7637	3133.4093	3135.8513
COC1OCCOC1=O	CO[C@H]1OCCOC1=O	
InChI=1S/C5H8O4/c1-7-5-4(6)8-2-3-9-5/h5H,2-3H2,1H3	InChI=1S/C5H8O4/c1-7-5-4(6)8-2-3-9-5/h5H,2-3H2,1H3/t5-/m0/s1
