15
gdb 15556	3.67248	1.80867	1.37852	4.8088	66.28	-0.274	-0.0081	0.2659	882.2804	0.119701	-362.682914	-362.67564	-362.674696	-362.714587	27.131	
O	 0.0887516266	 1.416251848	-0.0374438962	-0.412317
C	 0.0432982925	 0.0092306776	 0.0215930276	 0.121965
C	 0.6067519493	-0.5418930795	 1.3560909854	-0.287694
C	-0.6271190195	-0.7404821547	 2.2017764973	-0.081453
C	-1.7406060539	-0.7364491912	 1.4718177024	-0.06933
C	-1.4273891028	-0.5460720569	-0.0058183173	-0.233489
C	-2.3705163426	 0.3202704934	-0.7105141398	 0.278841
N	-3.1427232197	 0.9894616052	-1.2499710565	-0.324258
H	-0.4232120797	 1.7710357476	 0.699285747	 0.289788
H	 0.6072657562	-0.3326342933	-0.8483190158	 0.105514
H	 1.1352210922	-1.4933115152	 1.2069921702	 0.119494
H	 1.3315494136	 0.1618143028	 1.7776963672	 0.123654
H	-0.5896447954	-0.9016516912	 3.2730358936	 0.110904
H	-2.7514268346	-0.8829097942	 1.8306801051	 0.122271
H	-1.4383717721	-1.5209255684	-0.5144414903	 0.136109
76.0771	153.7882	195.1739	342.2976	365.1908	387.4751	416.791	533.1055	560.1805	711.5052	770.8263	805.4713	826.7892	871.0221	956.1754	975.232	979.6201	1026.9142	1052.7012	1095.5806	1131.3154	1179.1462	1203.1847	1252.5563	1290.1614	1312.4133	1331.4268	1371.6312	1435.1045	1474.1318	1677.3031	2360.9133	3006.6957	3020.7053	3079.553	3101.9858	3196.8401	3225.3711	3790.288
OC1CC=CC1C#N	O[C@H]1CC=C[C@H]1C#N	
InChI=1S/C6H7NO/c7-4-5-2-1-3-6(5)8/h1-2,5-6,8H,3H2	InChI=1S/C6H7NO/c7-4-5-2-1-3-6(5)8/h1-2,5-6,8H,3H2/t5-,6-/m0/s1
