19
gdb 41308	3.07355	2.07298	1.75105	1.5797	77.29	-0.2204	0.0751	0.2955	862.3567	0.162126	-385.798617	-385.792418	-385.791474	-385.828593	27.46	
C	-0.0343568624	 1.5501910387	-0.2226767474	-0.299119
C	 1.4695138657	 1.5998877074	 0.2508956605	-0.311492
C	 1.2892422581	 0.1575101984	 0.7598758819	 0.378522
O	 0.5879126995	 0.0774853758	 2.0236617662	-0.335529
C	-0.3365124294	-0.7674145628	 1.2648146491	 0.011178
C	 0.5530867576	-2.0216040358	 1.0557555282	-0.199711
C	 1.6197720469	-1.2873684488	 0.1945364758	-0.14479
C	 0.7574845495	-0.9126383337	-1.0457867605	-0.292427
C	-0.0044791764	 0.0026078625	-0.0510216865	 0.19632
H	-0.7134250997	 2.0480053066	 0.4711792037	 0.120854
H	-0.2370270224	 1.9097910747	-1.2337083174	 0.104181
H	 2.1811235777	 1.6840135448	-0.5737013467	 0.112569
H	 1.7283038032	 2.3308569345	 1.0190871117	 0.117393
H	-1.3191519859	-0.8776589948	 1.7264945794	 0.074191
H	 0.9216367174	-2.3745443211	 2.02057679	 0.108974
H	 0.0779743979	-2.8435247982	 0.513012739	 0.095282
H	 2.6111687327	-1.7342072331	 0.122917377	 0.066859
H	 1.2976360351	-0.3160236656	-1.7853424939	 0.101524
H	 0.2259909347	-1.7208699594	-1.5563033399	 0.095221
253.5364	311.3368	323.373	456.8297	507.5475	523.9302	578.7216	671.7328	690.2545	771.4775	794.9869	810.8683	863.1592	874.2295	895.7644	897.7683	911.7279	941.2912	963.7554	989.3144	996.402	1042.3832	1057.4436	1103.3277	1136.0482	1159.4017	1193.9809	1210.5696	1215.1127	1219.7229	1228.9627	1246.7065	1260.7099	1280.6989	1289.2901	1298.574	1304.7014	1459.3942	1471.1382	1479.9477	1507.1473	3052.5832	3063.8078	3069.7283	3074.7059	3102.313	3107.8106	3114.0653	3122.2403	3126.3209	3138.081
C1CC23OC4CC2CC134	C1C[C@]23O[C@@H]4C[C@H]2C[C@]134	
InChI=1S/C8H10O/c1-2-8-5-3-6(9-8)7(1,8)4-5/h5-6H,1-4H2	InChI=1S/C8H10O/c1-2-8-5-3-6(9-8)7(1,8)4-5/h5-6H,1-4H2/t5-,6+,7-,8-/m0/s1
