19
gdb 98401	2.21565	1.26288	0.83825	1.7736	78.02	-0.2222	-0.0247	0.1976	1405.8122	0.156523	-456.36464	-456.35362	-456.352675	-456.401791	36.954	
C	-0.3810598526	-0.6729111454	-1.3119022172	-0.305534
N	 0.0621185919	-0.0968337178	-0.0509698178	-0.351406
C	 0.4885890932	-0.7313116871	 1.0857120773	 0.275808
N	 0.8758907826	-0.1682907745	 2.1697095273	-0.273032
C	 0.8607993777	 1.2788812113	 2.2183644081	-0.341165
C	 0.4398701959	-2.2458159526	 1.07121137	 0.404022
O	-0.3235145657	-2.8923519481	 0.3911479341	-0.378014
O	 1.3264859269	-2.78099716	 1.9134097217	-0.201343
C	 1.2885822317	-4.2099875689	 2.0057486281	-0.238968
H	-1.3807356344	-1.1125074962	-1.2466664795	 0.142309
H	-0.3902280863	 0.126591698	-2.0576189731	 0.115846
H	 0.3022823832	-1.451516208	-1.6561071392	 0.142746
H	-0.0189976025	 0.9018100913	 0.0273542645	 0.247013
H	 1.5027994473	 1.7322653745	 1.4441416387	 0.109389
H	-0.1522274177	 1.6968721877	 2.0864286953	 0.108699
H	 1.22753521	 1.6149845373	 3.1911505546	 0.126718
H	 0.3137074859	-4.5470876832	 2.3674563328	 0.141406
H	 1.4771540686	-4.6662497293	 1.0303941508	 0.138066
H	 2.0722928043	-4.4787432791	 2.7134676034	 0.137439
35.205	75.8605	119.3203	134.5469	146.4673	167.4927	193.1719	230.0016	234.8722	313.3956	338.8741	364.001	424.1585	519.0316	625.253	695.2971	811.4823	839.8614	996.7771	1039.8575	1083.1312	1097.725	1149.2339	1154.0286	1177.468	1204.5779	1219.9611	1262.2353	1389.209	1430.9679	1466.9609	1473.5451	1481.345	1482.0736	1487.603	1495.4317	1502.8115	1504.4698	1523.7601	1703.6127	1794.9951	2946.4943	2988.9304	3042.7119	3050.5721	3100.7149	3106.7072	3123.6617	3127.3503	3162.5572	3665.8168
CNC(=NC)C(=O)OC	CNC(=NC)C(=O)OC	
InChI=1S/C5H10N2O2/c1-6-4(7-2)5(8)9-3/h1-3H3,(H,6,7)	InChI=1S/C5H10N2O2/c1-6-4(7-2)5(8)9-3/h1-3H3,(H,6,7)
