15
gdb 78067	2.10771	1.81544	1.65192	2.7926	67.44	-0.2532	-0.0731	0.18	919.536	0.112271	-453.897311	-453.889603	-453.888659	-453.929575	28.838	
O	 0.4477156623	 1.3487774688	 0.2412024148	-0.4255
C	 0.1538050329	 0.0135784442	 0.0278413325	 0.043328
C	-1.2763100698	-0.5638609319	 0.0660112961	-0.104479
C	-2.1178491262	-0.2702189455	-1.1195425312	-0.100465
C	-2.0907140699	 0.975102583	-1.9475582955	 0.155139
O	-1.2656046092	 1.85882805	-1.885761297	-0.261513
N	-1.0446889139	-1.3268225227	-1.2322192333	-0.152302
C	 0.225699331	-0.6166150051	-1.375828428	 0.317811
N	 0.9821177225	-0.6619169162	-2.3731883378	-0.501809
H	-0.0336304756	 1.8434628683	-0.4422459969	 0.303732
H	 0.7740012025	-0.5717745377	 0.7168545726	 0.127278
H	-1.7180037775	-1.0652841148	 0.920582554	 0.11751
H	-3.0947175131	-0.748336768	-1.1251862452	 0.123945
H	-2.9242392964	 1.0470440619	-2.6739841734	 0.116202
H	 1.8170198605	-0.0940527844	-2.2109056717	 0.241124
105.8411	128.2904	212.9431	244.9711	258.0543	307.64	479.084	518.3663	644.2911	649.1062	666.7009	707.1323	790.6789	846.6196	862.6481	888.4428	927.055	937.3214	967.4577	1043.2807	1071.2124	1098.2983	1179.5121	1214.2191	1218.1459	1275.4271	1324.753	1345.5673	1413.8891	1432.7186	1471.8756	1793.3598	1811.0644	2942.9052	3054.4948	3143.2479	3177.421	3460.7379	3666.5596
OC1C2C(C=O)N2C1=N	O[C@H]1[C@H]2[C@@H](C=O)N2[C]1[NH]	
InChI=1S/C5H6N2O2/c6-5-4(9)3-2(1-8)7(3)5/h1-4,6,9H	InChI=1S/C5H6N2O2/c6-5-4(9)3-2(1-8)7(3)5/h1-4,6,9H/t2-,3-,4+,7?/m1/s1
