12
gdb 25395	3.74011	1.24492	0.93402	0.6803	68.61	-0.2726	-0.1202	0.1524	1124.3857	0.07725	-472.66938	-472.662217	-472.661273	-472.701506	25.612	
O	-0.867325687	 1.0810166148	 0.46015469	-0.237686
C	 0.1969806852	 0.829011505	-0.0480472986	 0.099609
C	 1.3207123773	 1.7972908911	-0.0991035951	 0.260217
C	 1.2810022678	 3.0505252786	 0.409072066	-0.093587
N	 2.3620037963	 3.9001533434	 0.327820595	-0.20697
C	 3.422916008	 3.4519580041	-0.2561832985	-0.086267
C	 3.56575801	 2.107111193	-0.8401879661	 0.382978
O	 4.5335243964	 1.6636836522	-1.3862037826	-0.312613
O	 2.4250328112	 1.3150211132	-0.7132267615	-0.239405
H	 0.4262475749	-0.1477298145	-0.5203195845	 0.112675
H	 0.3839151449	 3.4099981953	 0.8952439436	 0.161904
H	 4.298128235	 4.0912857738	-0.3410104678	 0.159144
103.4888	152.7987	190.3167	205.3038	398.9232	421.0588	465.2871	570.9779	576.6053	631.9483	749.7032	787.1043	871.3652	904.7421	958.6617	1018.3045	1034.3214	1093.7879	1157.977	1233.9922	1348.4666	1379.5323	1431.2787	1556.0578	1657.0982	1808.1893	1855.1473	2939.4436	3174.4253	3232.4937
O=CC1=CN=CC(=O)O1	O=Cc1cncc(=O)o1	
InChI=1S/C5H3NO3/c7-3-4-1-6-2-5(8)9-4/h1-3H	InChI=1S/C5H3NO3/c7-3-4-1-6-2-5(8)9-4/h1-3H
