16
gdb 50846	2.19129	1.2376	0.85678	3.8932	68.31	-0.2771	-0.0276	0.2495	1306.1492	0.122575	-475.018498	-475.009612	-475.008668	-475.05342	30.852	
N	-0.0956755378	 1.7404114064	-1.5183700857	-0.471415
C	-0.0509067614	 0.6560194636	-0.8769737449	 0.391955
C	-1.2843175961	-0.2165433714	-0.7536948516	-0.330803
C	-2.1912150486	 0.205145699	 0.3868988765	 0.095288
C	-3.0213296224	-0.764973252	 1.1083753417	-0.182109
O	-1.831590036	-0.2321336214	 1.7021389769	-0.219534
O	 1.1467475276	 0.2173735719	-0.3324474309	-0.209945
C	 1.2174327284	-0.6256858502	 0.7502707755	 0.133463
O	 2.268379938	-1.0617088783	 1.1023620699	-0.249258
H	 0.8101573872	 2.2126351045	-1.4944995738	 0.23801
H	-1.8377475441	-0.0900044622	-1.6882738786	 0.154903
H	-1.0200280457	-1.2727944657	-0.6535809604	 0.126529
H	-2.5212796563	 1.2421971273	 0.3395975265	 0.125078
H	-3.9522285463	-0.444166687	 1.5713867787	 0.1311
H	-2.9743776878	-1.8182552459	 0.8362947478	 0.125088
H	 0.2499694014	-0.8057523883	 1.2388543722	 0.14165
49.7784	88.2	110.3304	148.1035	184.6448	243.1543	348.157	394.4003	439.0711	514.2152	590.1696	686.3029	797.7309	864.749	886.5799	934.8303	956.9358	967.0837	1062.2352	1071.2706	1093.8072	1104.2051	1131.0813	1162.9507	1173.786	1229.6854	1290.5349	1307.8061	1346.5671	1436.1617	1452.0136	1468.8564	1528.8695	1751.7305	1865.0428	3059.1075	3066.835	3093.0548	3114.3586	3131.733	3183.1968	3474.9588
N=C(CC1CO1)OC=O	[NH][C](C[C@H]1CO1)OC=O	
InChI=1S/C5H7NO3/c6-5(9-3-7)1-4-2-8-4/h3-4,6H,1-2H2	InChI=1S/C5H7NO3/c6-5(9-3-7)1-4-2-8-4/h3-4,6H,1-2H2/t4-/m0/s1
