21
gdb 118015	3.44187	0.80358	0.68181	3.4811	80.63	-0.2567	0.026	0.2827	1655.9621	0.180924	-420.405518	-420.394523	-420.393579	-420.442216	38.41	
C	-0.0030997054	 1.393626974	 0.0194762628	-0.229057
O	 0.0066968585	-0.0135460299	 0.0362710279	-0.236311
C	-1.2892744117	-0.5717003429	 0.0124899771	-0.060282
C	-1.1496490729	-2.0970895675	 0.0223198092	 0.00824
C	-0.4423326651	-2.5803625453	 1.2934914027	-0.41474
C	-2.5412336927	-2.752563162	-0.1513847583	-0.133965
N	-3.1875001138	-2.3148395877	-1.3935562387	-0.499851
C	-2.4444497982	-4.2271822235	-0.0670323611	 0.262356
N	-2.3986492082	-5.3827990216	-0.0576793895	-0.331194
H	 1.0370239192	 1.7282837866	 0.0278779482	 0.128239
H	-0.4973154684	 1.7879157628	-0.8824460356	 0.1057
H	-0.5176332706	 1.8096398392	 0.9003049389	 0.104612
H	-1.8662196108	-0.2441628233	 0.8974112502	 0.07875
H	-1.8403030578	-0.2417389774	-0.8782744199	 0.11134
H	-0.5402055706	-2.3751625793	-0.8481738974	 0.094109
H	-0.257319147	-3.6571947688	 1.2682233273	 0.139404
H	 0.5124239838	-2.0627954059	 1.3996443916	 0.142068
H	-1.0456654578	-2.360723614	 2.1827999843	 0.11239
H	-3.1778899492	-2.4264003232	 0.6815104779	 0.129681
H	-2.6658764243	-2.6682526097	-2.1915879563	 0.242674
H	-4.118808187	-2.7143001907	-1.4608927112	 0.245838
51.0574	79.6014	91.5682	127.5408	191.1777	211.6627	231.118	245.5356	263.9835	288.9164	347.8866	388.6029	440.462	448.6682	602.004	604.6417	834.7383	875.8849	922.1894	937.6926	971.0925	1007.2073	1053.309	1107.3572	1138.5107	1161.1835	1167.2481	1189.5106	1218.3142	1235.5215	1267.6887	1298.1992	1349.83	1365.8391	1389.1776	1406.422	1424.3156	1481.0648	1485.4652	1493.9386	1505.0705	1506.1446	1531.1812	1661.2606	2342.891	2934.0588	2970.7774	3014.28	3017.8106	3031.0746	3034.0435	3041.3895	3109.5405	3114.8271	3143.2315	3491.4879	3571.1352
COCC(C)C(N)C#N	COC[C@@H](C)[C@@H](N)C#N	
InChI=1S/C6H12N2O/c1-5(4-9-2)6(8)3-7/h5-6H,4,8H2,1-2H3	InChI=1S/C6H12N2O/c1-5(4-9-2)6(8)3-7/h5-6H,4,8H2,1-2H3/t5-,6+/m1/s1
