17
gdb 121611	3.44081	0.67969	0.59002	7.1444	69.83	-0.189	0.0333	0.2223	1800.9015	0.13355	-492.295143	-492.284419	-492.283475	-492.333592	35.256	
N	-0.6446045828	 0.2117462534	 0.6202810831	-0.506257
H	-2.3177982008	-0.1875747276	 1.1280675461	 0.300838
H	 0.1114208743	-0.3683333359	 0.9668175295	 0.251151
H	-0.5812035766	 0.2120271496	-0.3928849406	 0.247271
C	-0.5594354118	 1.5841209317	 1.1480272352	-0.148913
C	-1.9296556886	 2.2689435879	 1.0712033623	-0.177064
N	-2.8943699141	 1.8789214344	 2.1136349683	-0.221236
C	-3.580356589	 0.73777207	 2.3204913972	-0.07968
O	-3.1846403699	-0.3018362513	 1.6078958769	-0.342959
C	-5.3969710173	 1.5222860028	 4.2652513997	 0.551827
O	-5.9552094045	 0.5192072089	 4.4442342033	-0.281976
O	-4.9391396015	 2.5980704286	 4.2054373473	-0.33057
H	-0.2402990701	 1.5337512902	 2.1929933078	 0.130662
H	 0.1758732169	 2.1952354014	 0.6054908325	 0.105171
H	-1.7917513957	 3.3503296822	 1.1567799691	 0.117949
H	-2.362265861	 2.0797450063	 0.0782096672	 0.118495
H	-3.2481830774	 2.6402248476	 2.6737997651	 0.265289
33.934	42.9197	62.0341	83.7942	98.3132	188.9007	213.8104	251.5058	292.1708	319.3072	422.4976	507.9258	594.1671	682.9113	698.1996	729.267	798.8585	886.0094	953.8717	967.7329	996.8096	1029.8697	1096.01	1187.9601	1208.1065	1298.9204	1339.2495	1345.3332	1357.9255	1406.0314	1427.9743	1467.6431	1482.5372	1493.7486	1529.5046	1654.0151	2401.8181	3001.8582	3010.2698	3090.4686	3095.7897	3158.151	3509.2629	3590.7086	3613.4917
[NH3+]CCNC(=O)C([O-])=O	NCCN[C]O.C(=O)=O	
InChI=1S/C4H8N2O3/c5-1-2-6-3(7)4(8)9/h1-2,5H2,(H,6,7)(H,8,9)	InChI=1S/C3H8N2O.CO2/c4-1-2-5-3-6;2-1-3/h5-6H,1-2,4H2;
