21
gdb 96506	2.28751	1.54674	1.10078	3.1114	78.72	-0.2386	-0.014	0.2246	1180.7242	0.183396	-424.252016	-424.243069	-424.242125	-424.285596	33.777	
C	-0.0758040693	 1.6177564737	 0.0084499878	-0.410854
C	-0.038764757	 0.0876798032	 0.0496794869	-0.112133
C	 0.5189127385	-0.4681663543	-1.2846813687	-0.066925
O	 1.0699420801	-1.768606188	-1.2214736768	-0.247851
C	 0.276317283	-2.7724460439	-0.6069940616	-0.082149
C	 0.6985803319	-2.9742737583	 0.8503829861	-0.195686
C	 0.3896732519	-1.7881908549	 1.7892018614	-0.298703
C	 0.8073607578	-0.4352157516	 1.2201743695	 0.404369
O	 1.7383067043	 0.193254723	 1.6666675461	-0.314651
H	 0.9412352577	 2.0160264116	 0.0366927197	 0.144217
H	-0.5702335858	 1.9717076951	-0.9020438241	 0.111267
H	-0.6184442854	 2.0240224105	 0.86662031	 0.119925
H	-1.0565352201	-0.2983665695	 0.180181422	 0.079954
H	-0.2745557295	-0.4175315732	-2.0477931398	 0.09324
H	 1.3441069375	 0.1697941179	-1.6166122143	 0.121603
H	-0.7967084072	-2.5435559503	-0.6913493855	 0.09089
H	 0.4542503168	-3.6978317897	-1.1664985018	 0.109487
H	 0.2154308866	-3.8751811027	 1.2464409626	 0.100889
H	 1.7780361358	-3.1603316612	 0.8505586153	 0.125314
H	-0.6903539018	-1.7558323819	 1.9838526092	 0.107805
H	 0.9039254141	-1.9247954653	 2.7436196762	 0.119995
93.5025	101.6237	176.3452	204.9766	251.3096	273.5037	316.3134	330.414	417.986	472.7601	521.2939	586.3234	698.9864	750.2084	818.0009	873.5671	889.2515	923.5103	951.1556	974.223	1028.6102	1044.8228	1070.0208	1116.9653	1136.0712	1152.0418	1183.0828	1224.8334	1247.0404	1274.1678	1313.4763	1329.0453	1346.7186	1363.2138	1384.2258	1396.5188	1404.906	1421.475	1473.4344	1482.0303	1489.3031	1498.7954	1501.5653	1505.2811	1813.8747	2972.128	2994.08	3022.0948	3034.9854	3036.8238	3042.6547	3061.6103	3080.0773	3084.1587	3106.6215	3108.6906	3130.9146
CC1COCCCC1=O	C[C@H]1COCCCC1=O	
InChI=1S/C7H12O2/c1-6-5-9-4-2-3-7(6)8/h6H,2-5H2,1H3	InChI=1S/C7H12O2/c1-6-5-9-4-2-3-7(6)8/h6H,2-5H2,1H3/t6-/m0/s1
