19
gdb 108982	3.78191	1.13886	1.01865	1.0138	76.08	-0.2329	0.0054	0.2383	1207.6653	0.160775	-423.006082	-422.998322	-422.997378	-423.038356	30.698	
O	 0.1787786811	 1.3779064197	 0.0280380169	-0.4077
C	 0.0100315353	-0.0199692338	-0.0981985517	-0.145126
C	-1.4222802297	-0.4816215927	-0.0774492764	 0.257767
C	-2.4777444914	 0.3367424469	-0.0857858731	-0.16511
C	-3.839995695	-0.3198504398	-0.0231966446	 0.045364
C	-3.9335895595	-1.4200595752	-1.1083301072	-0.239561
C	-3.201662457	-2.2294690078	-0.0146442071	 0.087761
C	-1.6849876133	-1.9785787882	-0.0224555759	-0.31025
O	-3.8013492264	-1.3709656312	 0.9963049878	-0.294928
H	-0.2053066501	 1.6371946493	 0.8725743999	 0.284222
H	 0.4749267191	-0.291261016	-1.0559685967	 0.122144
H	 0.576310816	-0.5676346859	 0.6763374355	 0.093941
H	-2.3750118156	 1.4137180559	-0.1542631229	 0.093802
H	-4.6705196209	 0.3719949093	 0.1280917681	 0.07416
H	-4.9548038526	-1.7778411963	-1.2500848477	 0.107909
H	-3.4405016191	-1.2450178593	-2.066235316	 0.099908
H	-3.4562378114	-3.2828454782	 0.1301356536	 0.07523
H	-1.2178026551	-2.4880569173	-0.8772986172	 0.106469
H	-1.2329307445	-2.4115720792	 0.8801154045	 0.113997
91.4788	157.8409	204.1468	307.1095	338.6005	365.7218	417.8632	478.2713	518.0745	572.3288	663.4909	800.3393	833.2936	840.9075	872.5555	880.1912	915.2402	948.4427	974.7804	993.9484	1017.011	1045.827	1073.4495	1095.6288	1101.4488	1167.3356	1183.2158	1212.1145	1228.8181	1248.0034	1289.8841	1314.5035	1325.4882	1345.5134	1375.9979	1392.3366	1419.9135	1462.6568	1485.8436	1490.2613	1715.8875	2945.5641	3007.6793	3029.1712	3039.3512	3068.6108	3077.5432	3097.2632	3137.8497	3195.8572	3807.3575
OCC1=CC2CC(C1)O2	OCC1=C[C@H]2C[C@@H](C1)O2	
InChI=1S/C7H10O2/c8-4-5-1-6-3-7(2-5)9-6/h1,6-8H,2-4H2	InChI=1S/C7H10O2/c8-4-5-1-6-3-7(2-5)9-6/h1,6-8H,2-4H2/t6-,7+/m0/s1
