14
gdb 33991	2.43413	1.74433	1.21212	4.2708	67.29	-0.2817	-0.0132	0.2685	997.8417	0.099716	-436.622942	-436.615517	-436.614572	-436.655021	27.807	
N	-0.021628642	-1.1534814121	-0.1026805425	-0.335146
C	 0.0240840105	-0.0014208878	-0.0183705392	 0.203072
C	 0.0426792565	 1.4190459312	 0.1244937738	 0.253388
O	 0.2773894908	 2.2493041408	-1.023771742	-0.265935
C	 1.1478937168	 2.4098222888	 0.0950143334	-0.053089
C	 0.4352611759	 3.321983968	 1.1082671088	-0.343365
C	-0.7206576096	 2.2930496711	 1.1249446776	 0.369369
C	-2.1549025755	 2.3893349033	 1.3703939942	-0.257791
O	-1.2513725118	 1.7799195502	 2.317436048	-0.255272
H	 2.2066220925	 2.2463614781	-0.0635459016	 0.140346
H	 0.9306640497	 3.3550594711	 2.0816339412	 0.141704
H	 0.2186897556	 4.3312257616	 0.7542262524	 0.13213
H	-2.582096604	 3.3385539232	 1.6872962696	 0.132332
H	-2.8378276453	 1.7031131724	 0.8738556163	 0.138257
105.622	138.8557	176.9249	304.3293	330.5159	405.96	474.7601	521.9824	578.136	591.45	626.0941	799.6504	850.7738	885.8421	894.8912	926.2581	945.4046	1000.4918	1066.2198	1089.3642	1119.7871	1151.7181	1172.1827	1191.702	1239.0228	1261.0837	1403.8226	1438.9028	1469.9309	1537.1705	2361.2258	3077.2354	3096.4941	3140.1807	3189.1273	3206.9328
N#CC12OC1CC21CO1	N#C[C@]12O[C@H]1C[C@]12CO1	
InChI=1S/C6H5NO2/c7-2-6-4(9-6)1-5(6)3-8-5/h4H,1,3H2	InChI=1S/C6H5NO2/c7-2-6-4(9-6)1-5(6)3-8-5/h4H,1,3H2/t4-,5+,6-/m0/s1
