20
gdb 96224	2.40566	1.53658	1.01581	3.5913	83.6	-0.2249	-0.0471	0.1779	1201.8144	0.172419	-403.169419	-403.160821	-403.159877	-403.203072	32.948	
C	 0.185673232	 1.5716430332	-0.0012900347	-0.408472
C	-0.0509345548	 0.0594046061	-0.0701691473	-0.065743
N	 0.8310608172	-0.5326147134	-1.0661839326	-0.301347
C	 0.5387740614	-1.9218775038	-1.4023381517	-0.18176
C	 1.4167569595	-2.8814995194	-0.6022749511	-0.229389
C	 1.376925183	-2.7283572251	 0.8856623728	-0.032185
C	 0.837548479	-1.7755199791	 1.6582463527	-0.132441
C	 0.0784905087	-0.5418639008	 1.3421997786	 0.374192
O	-0.4873623072	 0.028850152	 2.2586602294	-0.337981
H	 1.2392358596	 1.7815137334	 0.2067455602	 0.126753
H	-0.0782963485	 2.0447449842	-0.9531241779	 0.103864
H	-0.4255642389	 2.0043608731	 0.7906332907	 0.147753
H	-1.1178570947	-0.1066520867	-0.3248189413	 0.083394
H	 0.7975688882	 0.0405504756	-1.8997852503	 0.221094
H	-0.5248720759	-2.1678121361	-1.235445637	 0.092062
H	 0.7338970112	-2.0810294973	-2.4679284539	 0.099663
H	 1.152796402	-3.9190393584	-0.8518587149	 0.107109
H	 2.4630145362	-2.7606709461	-0.9200103875	 0.125056
H	 1.875864384	-3.5385978097	 1.4173178773	 0.104102
H	 0.9077120477	-1.8997873715	 2.7362559686	 0.104278
36.4369	130.5248	225.8157	260.0776	281.3456	302.6113	366.2474	377.3837	447.2753	502.177	546.6493	619.6412	671.3613	755.6024	770.4734	833.5323	840.3024	912.5246	939.4514	1009.9957	1025.9802	1038.8161	1068.308	1103.7304	1134.4893	1179.0607	1219.9201	1252.0419	1277.1071	1300.6088	1332.6911	1339.3898	1392.839	1400.2078	1408.5666	1431.0486	1449.6299	1480.8206	1490.8109	1497.0576	1512.8678	1700.2421	1739.32	2886.4639	2947.6934	3002.8108	3032.0903	3040.5648	3066.6369	3106.3282	3125.8474	3156.1814	3163.9396	3549.864
CC1NCCC=CC1=O	C[C@H]1NCCC=CC1=O	
InChI=1S/C7H11NO/c1-6-7(9)4-2-3-5-8-6/h2,4,6,8H,3,5H2,1H3	InChI=1S/C7H11NO/c1-6-7(9)4-2-3-5-8-6/h2,4,6,8H,3,5H2,1H3/t6-/m1/s1
