16
gdb 127945	2.66063	1.63692	1.01992	1.6764	78.87	-0.2047	-0.0326	0.172	1117.7843	0.126646	-430.269187	-430.260923	-430.259979	-430.301841	30.835	
C	 0.1393851061	 1.3649631278	 0.1614270672	-0.345886
N	 0.1916055791	-0.0826147976	 0.1164787107	-0.347836
C	 0.5143240643	-0.6356397326	-0.9981569674	 0.381709
N	 0.8256972025	-0.0267470023	-2.1875501415	-0.32463
N	 1.1641006153	-0.6525524276	-3.3558203423	-0.22199
C	 1.1788044389	-1.9474436111	-3.282425226	 0.076216
N	 0.901943346	-2.7352552347	-2.1986907672	-0.354059
C	 0.5820261682	-2.1099018442	-1.0964270606	 0.384853
N	 0.2904528664	-2.7641580699	 0.0344157334	-0.542011
H	 1.1119734019	 1.8310395514	-0.0709278449	 0.110751
H	-0.5996631734	 1.7839182317	-0.5424976374	 0.11073
H	-0.1460473294	 1.6893312941	 1.1648369895	 0.127558
H	 0.8165593532	 0.9776363345	-2.2541468867	 0.2706
H	 1.4442560897	-2.4648661982	-4.1979623053	 0.124156
H	 0.3059414415	-3.7685748992	 0.0545577371	 0.269038
H	 0.0481656298	-2.2069529721	 0.8394962912	 0.280802
107.5735	181.2551	203.1448	208.2181	247.8279	269.7506	342.7111	495.4343	516.7272	557.6466	565.2159	592.6038	639.2845	651.5085	768.1662	809.4362	937.669	945.0168	1017.4308	1055.5231	1108.8813	1111.9882	1188.1579	1267.2392	1319.8516	1388.044	1418.6813	1443.6819	1465.528	1502.7112	1503.6934	1557.1993	1622.2659	1660.02	1704.5209	2950.0394	2990.0775	3103.0019	3196.9456	3584.1058	3653.3054	3739.1065
CN=C1NN=CN=C1N	CN=c1[nH]ncnc1N	
InChI=1S/C4H7N5/c1-6-4-3(5)7-2-8-9-4/h2H,1H3,(H,6,9)(H2,5,7,8)	InChI=1S/C4H7N5/c1-6-4-3(5)7-2-8-9-4/h2H,1H3,(H,6,9)(H2,5,7,8)
