25
gdb 57538	3.38778	0.71442	0.7003	1.6837	89.61	-0.2618	0.0751	0.337	1787.7979	0.226351	-389.481758	-389.470838	-389.469894	-389.518211	40.62	
C	-0.2485787887	 1.5353142591	 0.0914971228	-0.400454
C	 0.0293631189	 0.0214191949	 0.0450745169	 0.259255
C	 0.7727546192	-0.4063809438	 1.3242886354	-0.40048
C	-1.3146107849	-0.728593766	-0.02173442	-0.402582
C	 0.8430316302	-0.3539160889	-1.2187051691	-0.176167
C	 2.230466482	 0.2884784945	-1.3711185944	-0.245941
C	 2.9165799817	-0.1700748805	-2.635449016	 0.106474
C	 4.3647003575	-0.3932950083	-2.7163770587	-0.183313
O	 3.4595470662	-1.4951339797	-2.6250622566	-0.237679
H	 0.6718325464	 2.1180485076	 0.1971495592	 0.109913
H	-0.7580708186	 1.872788116	-0.8182334418	 0.105965
H	-0.891186265	 1.7840691279	 0.9431218373	 0.108151
H	 0.1579603153	-0.2132705904	 2.2103280031	 0.107368
H	 1.0054578874	-1.4769328272	 1.3079496178	 0.11147
H	 1.7125867233	 0.1390751449	 1.4548688009	 0.109814
H	-1.8829747823	-0.4448087423	-0.9144906717	 0.106662
H	-1.1620240423	-1.8129868869	-0.0538454814	 0.1098
H	-1.9337194978	-0.5037289808	 0.8537524025	 0.10595
H	 0.971518014	-1.4434314647	-1.2422157024	 0.108126
H	 0.2418355365	-0.0992692358	-2.1029450531	 0.085339
H	 2.1500972698	 1.3823901718	-1.399412595	 0.099972
H	 2.869724566	 0.0333095734	-0.5191921081	 0.103343
H	 2.3954111083	 0.0769847342	-3.5635054586	 0.087235
H	 4.8810898513	-0.288296281	-3.6698723743	 0.111564
H	 4.9828113255	-0.2226548179	-1.8353271347	 0.110214
42.834	65.8622	115.1784	138.558	224.6298	240.1567	264.0588	276.4473	304.5199	333.6357	374.6208	404.6907	431.2856	474.1666	499.5764	744.0689	763.6536	807.8002	870.0896	911.1	933.7289	936.9421	960.0297	961.6145	971.1183	1028.1445	1046.3007	1069.8593	1102.0952	1114.6617	1158.7532	1169.2249	1207.2534	1223.4949	1270.1552	1278.9826	1293.5065	1305.9026	1345.36	1386.4327	1399.4869	1401.9785	1433.2229	1447.064	1469.2492	1481.9546	1485.2014	1486.2567	1491.7428	1508.0037	1511.125	1518.7167	1530.9923	3005.3009	3021.2691	3024.541	3030.2068	3033.8286	3049.1412	3073.4557	3079.1397	3088.6849	3089.586	3090.7036	3094.5199	3096.4577	3098.5065	3102.3029	3163.5219
CC(C)(C)CCC1CO1	CC(C)(C)CC[C@H]1CO1	
InChI=1S/C8H16O/c1-8(2,3)5-4-7-6-9-7/h7H,4-6H2,1-3H3	InChI=1S/C8H16O/c1-8(2,3)5-4-7-6-9-7/h7H,4-6H2,1-3H3/t7-/m0/s1
