16
gdb 125551	4.88185	1.29731	1.04718	3.652	71.06	-0.2286	0.0268	0.2554	1116.7381	0.127256	-434.095368	-434.087879	-434.086935	-434.127747	27.158	
C	-0.1164736303	 1.4075374593	-0.0185292338	-0.480458
C	-0.0043971821	-0.0783080601	 0.0019909845	 0.342722
N	-0.1348340916	-0.8110930293	-1.0987057064	-0.326647
N	-0.0047425501	-2.0744810587	-0.5908003463	-0.001011
C	 0.2101919554	-3.3956234458	-1.1279330199	-0.198223
C	 0.2648183719	-4.1811376826	 0.222255715	-0.107066
O	 0.4862237854	-3.2030002033	 1.2790445067	-0.273101
C	 0.2391967386	-2.0067952801	 0.7233603738	 0.49046
N	 0.2348231438	-0.7807248246	 1.1725721167	-0.424835
H	 0.7875612118	 1.866996492	 0.3930762028	 0.139329
H	-0.2634771943	 1.7574020797	-1.041629288	 0.138432
H	-0.9583004135	 1.7415504787	 0.5966525626	 0.139164
H	-0.6104657061	-3.7337846096	-1.7650233969	 0.142349
H	 1.1470792917	-3.4544495494	-1.6938507489	 0.137571
H	-0.6850141261	-4.6841317936	 0.4247427467	 0.139132
H	 1.0770799753	-4.9070038925	 0.2643386412	 0.142182
111.0165	121.0958	123.6955	243.7808	281.2474	344.7794	510.1718	573.7246	685.5592	725.8203	743.2269	765.1608	851.1067	873.0504	942.1182	981.7835	1021.5442	1036.5497	1067.1967	1134.4571	1168.8226	1211.4083	1248.4719	1278.3335	1336.1881	1342.6622	1392.2684	1415.5791	1474.0904	1476.0197	1496.41	1510.9614	1533.4609	1576.1785	1625.6942	3038.2972	3045.4647	3066.7902	3099.3028	3101.2502	3139.082	3145.0824
CC1=NN2CCOC2=N1	Cc1nn2CCOc2n1	
InChI=1S/C5H7N3O/c1-4-6-5-8(7-4)2-3-9-5/h2-3H2,1H3	InChI=1S/C5H7N3O/c1-4-6-5-8(7-4)2-3-9-5/h2-3H2,1H3
