25
gdb 120031	2.29165	1.02215	0.80452	1.6484	89.16	-0.237	0.0791	0.3161	1575.4664	0.2273	-389.491674	-389.48084	-389.479896	-389.528399	39.609	
C	 0.0368419332	 1.6388769384	 0.2520394129	-0.38079
C	-0.0243574062	 0.1163389543	 0.103486055	-0.17457
C	 0.765816984	-0.39929989	-1.1070069792	-0.18244
C	 0.7446677043	-1.920198913	-1.2469601718	-0.090967
C	-0.4765719402	-2.6122293924	-1.9282175176	 0.162685
C	-1.7137177824	-1.8411521923	-2.346098387	-0.407456
O	 0.330519481	-2.9862767202	-3.0684918137	-0.312941
C	 1.5479120364	-2.5610718098	-2.4155240859	 0.146855
C	 2.4214412868	-1.7143571385	-3.3206425761	-0.403974
H	 1.0705073109	 1.9839557024	 0.3672496365	 0.113776
H	-0.3813138699	 2.1404550368	-0.6278013339	 0.114577
H	-0.5265034429	 1.9781613333	 1.1269053804	 0.111768
H	 0.3670643431	-0.3572990271	 1.0136579127	 0.095137
H	-1.071204633	-0.2009604471	 0.024746939	 0.100956
H	 0.3910711433	 0.081333985	-2.0187358206	 0.099355
H	 1.8104606497	-0.0737506163	-1.0075824569	 0.094406
H	 0.9895924814	-2.3635482826	-0.2766832889	 0.065937
H	-0.7855155079	-3.5115206584	-1.3734456096	 0.065826
H	-1.4600285159	-0.9094053855	-2.8583790035	 0.118445
H	-2.2993505841	-2.4546136368	-3.0386079946	 0.126667
H	-2.346164827	-1.6108334708	-1.482659406	 0.115328
H	 2.1212087603	-3.4381225598	-2.0776821938	 0.064943
H	 1.8981013519	-0.818669368	-3.6647754739	 0.118594
H	 3.3379663967	-1.4103395154	-2.8034642561	 0.113159
H	 2.7088265664	-2.2983872661	-4.2008822773	 0.124724
32.2881	76.7817	101.1797	131.5447	209.4203	217.339	237.049	260.2702	277.5753	336.873	382.2862	394.2839	496.3078	525.6228	727.3002	742.9615	784.881	838.457	876.7918	900.1379	907.5135	940.0726	1005.6449	1012.6441	1051.4927	1074.5653	1078.7998	1100.3612	1121.1269	1157.4732	1176.4444	1196.9973	1240.1771	1262.67	1284.1304	1308.5417	1327.1875	1340.4301	1370.9573	1377.7492	1398.6863	1399.9127	1404.0347	1413.7383	1425.6328	1476.9984	1482.3297	1484.4236	1492.2873	1497.2183	1499.4434	1501.3131	1511.4903	2972.9227	2977.708	3012.7365	3020.2282	3029.2982	3036.6113	3038.0672	3043.5315	3053.4831	3067.4649	3096.4054	3101.7452	3104.101	3106.1236	3119.5201	3121.4297
CCCC1C(C)OC1C	CCC[C@H]1[C@@H](C)O[C@H]1C	
InChI=1S/C8H16O/c1-4-5-8-6(2)9-7(8)3/h6-8H,4-5H2,1-3H3	InChI=1S/C8H16O/c1-4-5-8-6(2)9-7(8)3/h6-8H,4-5H2,1-3H3/t6-,7+,8+
