15
gdb 9696	3.7699	1.66702	1.58909	3.8381	65.73	-0.2452	0.0096	0.2547	856.1798	0.120157	-358.868128	-358.860752	-358.859808	-358.899614	27.406	
C	 0.0274242743	 1.4940223043	 0.0896695077	-0.433722
C	-0.050236308	-0.0403441043	-0.0001539291	 0.112468
C	 0.817312306	-0.6073799881	-1.1894506595	-0.194455
N	 2.0702847254	-1.072691527	-0.5855664646	-0.238008
C	 1.8755389414	-1.0829775856	 0.673752484	 0.065025
N	 0.6232752908	-0.6984360052	 1.1334091439	-0.310891
C	-1.4536576275	-0.4674249415	-0.0910708882	 0.270905
N	-2.5632595964	-0.7773009474	-0.1814658892	-0.33872
H	 1.0772108081	 1.799988648	 0.1090356472	 0.14002
H	-0.4567260678	 1.9530842815	-0.7766605304	 0.145624
H	-0.4695661952	 1.8632933372	 0.9917467274	 0.133019
H	 0.3109460961	-1.4459696651	-1.6791001923	 0.13847
H	 1.0017622992	 0.1614200405	-1.9450548704	 0.124772
H	 2.6180199507	-1.4117951376	 1.395022617	 0.135784
H	 0.5408436828	-0.2710255997	 2.0453392262	 0.249709
104.3639	171.8794	196.9398	265.812	330.946	372.2252	492.2351	518.7492	543.9378	567.428	633.6874	811.8508	840.7371	923.8099	944.0309	964.5987	985.7489	988.3069	1109.7091	1124.9174	1160.9338	1204.9627	1256.7239	1321.3058	1342.7459	1404.5375	1418.8429	1484.8635	1490.7275	1495.4753	1696.4624	2357.3997	3041.6188	3048.5253	3092.7552	3119.765	3126.9857	3189.6596	3596.8061
CC1(CN=CN1)C#N	C[C@]1(C[N][CH]N1)C#N	
InChI=1S/C5H7N3/c1-5(2-6)3-7-4-8-5/h4H,3H2,1H3,(H,7,8)	InChI=1S/C5H7N3/c1-5(2-6)3-7-4-8-5/h4H,3H2,1H3,(H,7,8)/t5-/m1/s1
