18
gdb 46801	3.0145	1.60719	1.27959	4.9686	71.83	-0.2456	0.0466	0.2923	1007.1348	0.150634	-439.112959	-439.105607	-439.104663	-439.145014	28.974	
O	-0.067531373	-0.083106936	-0.2219564252	-0.376543
C	-0.0361906686	 1.10174191	 0.002159002	 0.435899
N	-1.1535882361	 1.8942021152	-0.0651290346	-0.34535
C	-1.3033695667	 3.312847024	 0.1958501188	 0.023763
C	-0.090928023	 4.1653551943	-0.2749241801	-0.235362
C	 0.5019592644	 3.9709306987	 1.149065959	-0.032666
C	-0.9412696667	 3.7105255431	 1.6560718347	-0.23222
C	 1.3989524198	 2.7332000044	 1.2185344017	-0.079193
O	 1.1612327837	 1.7207432589	 0.2306524036	-0.249736
H	-1.9914397425	 1.353098526	-0.2046119162	 0.257565
H	-2.2881212291	 3.6033295107	-0.1738723473	 0.082867
H	 0.481667294	 3.7968744282	-1.1268566597	 0.123101
H	-0.3920845181	 5.2002744816	-0.4511729368	 0.107417
H	 1.035212832	 4.8125678553	 1.5994549874	 0.076517
H	-1.4381501437	 4.6362586077	 1.9582416034	 0.104361
H	-1.088627509	 2.9480463685	 2.4259840309	 0.101726
H	 2.4379732223	 3.0187614566	 1.0342422303	 0.124587
H	 1.3485636902	 2.2780766228	 2.2171607778	 0.113269
65.6977	141.9148	306.9831	316.9784	362.7704	424.0758	475.4385	499.7469	554.1693	706.7018	731.4978	783.2054	793.0562	824.6562	881.2517	894.8605	913.2393	946.5362	1010.7399	1044.2641	1078.9566	1113.1864	1122.4991	1139.3969	1153.5778	1197.5947	1251.6524	1254.4464	1269.6905	1299.6047	1316.729	1354.4008	1397.0689	1430.2889	1465.1897	1469.3147	1494.1007	1504.1758	1828.382	3015.7329	3052.7579	3066.9474	3077.9252	3093.7533	3094.8955	3113.8289	3139.3714	3647.471
O=C1NC2CC(C2)CO1	O=C1N[C@@H]2C[C@@H](C2)CO1	
InChI=1S/C6H9NO2/c8-6-7-5-1-4(2-5)3-9-6/h4-5H,1-3H2,(H,7,8)	InChI=1S/C6H9NO2/c8-6-7-5-1-4(2-5)3-9-6/h4-5H,1-3H2,(H,7,8)/t4-,5+
