20
gdb 109999	1.97255	1.38003	0.86972	3.9173	77.85	-0.2398	0.0222	0.2621	1343.3076	0.169689	-440.295005	-440.285159	-440.284215	-440.330385	35.061	
C	-0.4103564235	 1.3936334109	 0.1415342129	-0.398988
C	-0.0602460322	-0.0954838738	 0.0890946888	-0.161435
C	 0.6224929689	-0.5004923245	-1.2148905509	 0.004141
C	 0.8276222285	-2.0326515787	-1.443473681	 0.07699
O	 0.4884880063	-2.8034851684	-0.3203736306	-0.421313
C	-0.2070174909	-1.9508734663	-2.606306564	-0.202713
N	-0.2444229815	-0.498576046	-2.4130044973	-0.049108
C	-0.4472633042	 0.4377142047	-3.3710492917	 0.123836
O	-0.9141702443	 0.2071654329	-4.4681597002	-0.331588
H	 0.4823858048	 2.0199824876	 0.0321417713	 0.113218
H	-1.1101430692	 1.6649770935	-0.6554841141	 0.126702
H	-0.8811801705	 1.6497213636	 1.0951440505	 0.119678
H	 0.6149232316	-0.3556011008	 0.9123971143	 0.110123
H	-0.9601753816	-0.702628613	 0.2259790871	 0.113038
H	 1.536130383	 0.0904323717	-1.3570479963	 0.086313
H	 1.8379715812	-2.2659240425	-1.8005114498	 0.083338
H	 0.6467419556	-3.7300838047	-0.5250214392	 0.292968
H	 0.1328311383	-2.2465553715	-3.6030263635	 0.126238
H	-1.1563307724	-2.4479533954	-2.3795110914	 0.118564
H	-0.144238918	 1.4506232505	-3.0362496051	 0.069998
58.2584	87.8576	106.2018	165.5084	197.0584	229.4876	242.1025	296.6967	325.317	397.9189	427.4016	499.3389	612.995	727.4547	798.6574	827.3778	863.0689	925.9535	981.9588	1026.5047	1033.6419	1059.0265	1068.747	1122.6889	1152.7451	1167.2555	1191.9222	1212.6395	1263.4036	1285.8944	1302.9795	1310.5347	1343.2067	1388.3476	1398.6712	1411.5552	1426.9091	1445.9619	1478.0706	1499.3038	1506.4347	1507.9412	1786.2569	2927.3786	3016.9947	3031.4346	3033.3462	3041.5341	3047.4758	3083.8645	3098.4364	3105.8787	3109.8281	3827.5804
CCC1C(O)CN1C=O	CC[C@H]1[C@@H](O)CN1C=O	
InChI=1S/C6H11NO2/c1-2-5-6(9)3-7(5)4-8/h4-6,9H,2-3H2,1H3	InChI=1S/C6H11NO2/c1-2-5-6(9)3-7(5)4-8/h4-6,9H,2-3H2,1H3/t5-,6-/m0/s1
