20
gdb 70696	2.24228	1.83043	1.2043	3.0751	78.91	-0.2315	-0.0108	0.2207	1088.2447	0.172561	-403.168804	-403.160501	-403.159557	-403.201409	32.488	
C	-0.0643550729	 1.5386152613	 0.0304294516	-0.47703
C	 0.0871993794	 0.0376601222	-0.0218222566	 0.195076
N	-0.7677986782	-0.818737655	 0.8463924374	-0.360047
C	 0.6621355316	-0.7173448797	 1.1468315701	-0.068741
C	 1.4701237411	-1.99823467	 0.9763870732	-0.203625
C	 1.7878694224	-2.3320651123	-0.491459071	-0.214259
C	 0.5960120234	-2.039268267	-1.4256765121	-0.309883
C	 0.2919073941	-0.5533143508	-1.3928662306	 0.381614
O	 0.2645474593	 0.1424947612	-2.3847664304	-0.324045
H	 0.8037893705	 2.0337670137	-0.4134125176	 0.137744
H	-0.9425795492	 1.8583603417	-0.5381153867	 0.13814
H	-0.1686730844	 1.8822463713	 1.0645790164	 0.104807
H	-1.3081784797	-0.2174634686	 1.46442105	 0.233617
H	 0.9401600355	-0.0946766339	 1.9954381789	 0.088803
H	 2.4040076039	-1.9151636416	 1.5423949884	 0.100794
H	 0.8961577701	-2.8153485578	 1.4286391479	 0.114477
H	 2.6464261127	-1.735484296	-0.8245617464	 0.10869
H	 2.0859115781	-3.3814608248	-0.5817290307	 0.10418
H	 0.812456558	-2.3191660338	-2.4588920098	 0.114363
H	-0.286531126	-2.59128749	-1.083449252	 0.135327
87.4435	179.8831	195.176	226.3394	290.3963	320.31	382.6176	441.4903	484.3655	498.875	560.6671	650.1638	731.6899	771.6495	833.9573	859.1454	881.2849	899.4382	941.2082	982.9984	1029.4797	1041.8181	1079.2224	1105.4476	1126.4608	1136.3726	1174.179	1188.5027	1237.4837	1284.6741	1305.4219	1339.623	1370.2992	1373.1368	1389.0806	1415.9683	1439.7741	1465.3706	1476.9325	1481.4222	1496.7894	1502.59	1800.4924	3028.4721	3035.0176	3039.0244	3050.7718	3071.731	3083.8796	3111.1287	3115.5449	3117.1551	3120.426	3492.685
CC12NC1CCCC2=O	C[C@]12N[C@H]1CCCC2=O	
InChI=1S/C7H11NO/c1-7-5(8-7)3-2-4-6(7)9/h5,8H,2-4H2,1H3	InChI=1S/C7H11NO/c1-7-5(8-7)3-2-4-6(7)9/h5,8H,2-4H2,1H3/t5-,7-/m0/s1
