23
gdb 86558	4.59307	0.80433	0.74439	1.4602	85.96	-0.2546	0.0778	0.3324	1592.0491	0.20653	-388.267524	-388.258432	-388.257488	-388.301827	35.041	
O	 0.735307492	 0.3297277453	-0.8198333453	-0.434109
C	-0.0615342656	-0.371806875	 0.1002559554	 0.182469
C	 0.0816082366	-0.1001584798	 1.6222316212	-0.280426
C	-1.4627789736	-0.2776634322	 1.7576670559	-0.018989
C	-1.5777334215	-0.0584261491	 0.2169839615	-0.280426
C	-1.9013602609	-1.650713556	 2.2347638263	 0.071615
C	-1.7695182295	-2.0011768413	 3.7465395267	-0.234288
C	-3.1318805758	-2.7396983025	 3.655351807	-0.209223
C	-3.4238669554	-1.9595829341	 2.3454185586	-0.234285
H	 0.6186502967	 1.2713298887	-0.654177102	 0.273968
H	 0.1041163858	-1.4288696317	-0.1267406204	 0.091931
H	 0.7306800347	-0.7598280688	 2.2044793052	 0.099096
H	 0.3858913972	 0.9368132769	 1.8036580314	 0.086705
H	-1.9598596762	 0.484022004	 2.3672498051	 0.058993
H	-1.7762397569	 0.9911897382	-0.0273852862	 0.086705
H	-2.2777530756	-0.6841689041	-0.3432737216	 0.099097
H	-1.4141073801	-2.4308241856	 1.6362924783	 0.065898
H	-0.8952665689	-2.5731383771	 4.0671310263	 0.09376
H	-1.8403625273	-1.1007134203	 4.3662607633	 0.095984
H	-3.0006379029	-3.8094952746	 3.4686318	 0.100904
H	-3.8317978539	-2.6183473042	 4.4853683545	 0.094874
H	-3.9969172523	-1.0464921158	 2.5398057613	 0.095984
H	-3.9002587269	-2.4975847707	 1.5221083676	 0.09376
66.7352	78.9208	141.5181	153.9848	269.1223	292.0816	353.2028	372.0325	449.7836	457.2316	617.602	661.1836	750.5242	783.0326	815.595	889.2577	889.9587	931.4369	937.4106	939.3616	947.151	975.5134	983.6077	1013.9739	1041.4958	1097.0551	1099.5995	1111.5352	1148.8486	1192.3069	1204.7618	1217.2566	1254.2197	1254.2653	1257.5358	1262.4512	1267.6785	1278.2259	1283.7585	1291.0276	1320.9166	1336.6606	1408.7514	1439.3105	1469.7694	1478.5162	1487.0346	1496.3597	1510.6386	3020.0927	3037.5682	3037.7057	3042.9013	3045.8683	3053.5202	3057.2251	3067.8963	3093.8071	3096.9992	3099.6935	3103.6319	3115.3923	3803.6489
OC1CC(C1)C1CCC1	O[C@H]1C[C@@H](C1)C1CCC1	
InChI=1S/C8H14O/c9-8-4-7(5-8)6-2-1-3-6/h6-9H,1-5H2	InChI=1S/C8H14O/c9-8-4-7(5-8)6-2-1-3-6/h6-9H,1-5H2/t7-,8-
