19
gdb 90088	2.80301	1.50446	1.32143	2.8329	76.79	-0.2228	0.049	0.2717	1049.7758	0.157395	-422.870929	-422.862739	-422.861795	-422.903	32.764	
C	-0.1075376313	 1.5225840299	 0.0737574276	-0.43643
C	 0.0565085841	 0.0189200437	-0.0429944526	 0.00063
C	 1.3413800784	-0.5568972261	-0.6445748432	-0.020587
O	 2.11477515	-0.0572791009	 0.5784150025	-0.385475
C	 0.8759940339	-0.7474260119	 1.0534021349	 0.37005
C	 0.206389618	-1.6159043139	 2.1224804542	-0.381137
C	-0.0671783409	-2.6238360138	 0.8867001527	 0.054868
O	-1.3395083328	-2.5716161141	 0.2974514334	-0.407236
C	 1.1209217256	-1.9039630006	 0.121447117	-0.04336
H	 0.823724619	 1.9904655868	 0.3973678947	 0.13724
H	-0.3991274119	 1.9527640985	-0.8909138306	 0.112419
H	-0.8959454864	 1.7728776996	 0.7921280161	 0.110323
H	-0.8586481364	-0.4840131799	-0.3537872863	 0.107683
H	 1.8404826558	-0.3600328676	-1.5978087723	 0.087419
H	 0.9019400812	-2.0689076765	 2.833162313	 0.121764
H	-0.6610374231	-1.2069230418	 2.6498328322	 0.104603
H	 0.208329147	-3.6580102273	 1.1279011296	 0.08869
H	-1.9728779376	-2.9525674618	 0.9146913938	 0.29068
H	 2.0557191971	-2.4323420426	 0.3119377832	 0.087856
170.7179	192.231	212.3452	241.3862	258.1746	310.2013	376.6857	407.0479	441.9194	565.8962	614.7317	685.6955	717.5351	747.3136	775.3508	817.3973	873.5012	885.0324	952.6136	999.0589	1011.4911	1032.9793	1064.5543	1088.5353	1100.619	1142.8052	1157.776	1188.5274	1193.8378	1208.7804	1214.5607	1246.7968	1267.9247	1307.2362	1348.0722	1396.6279	1412.5982	1432.6209	1462.9793	1494.5196	1506.856	3014.8733	3034.4031	3050.1983	3071.7377	3088.5842	3107.0853	3120.4149	3123.6074	3142.4948	3809.4672
CC1C2OC11CC(O)C21	C[C@H]1[C@H]2O[C@]31C[C@@H](O)[C@@H]23	
InChI=1S/C7H10O2/c1-3-6-5-4(8)2-7(3,5)9-6/h3-6,8H,2H2,1H3	InChI=1S/C7H10O2/c1-3-6-5-4(8)2-7(3,5)9-6/h3-6,8H,2H2,1H3/t3-,4+,5-,6+,7-/m0/s1
