17
gdb 20870	6.63177	1.00816	0.93271	3.3268	69.94	-0.2533	-0.008	0.2454	1251.878	0.142703	-363.865071	-363.857243	-363.856299	-363.898309	27.933	
C	-0.0005219158	 1.5845465465	 0.0768237426	-0.380396
C	 0.0009174185	 0.0548631005	 0.1102063958	-0.155682
C	-1.4018600438	-0.5455427109	-0.1020071643	-0.321347
C	-1.4226734855	-2.0435190459	-0.0613836168	 0.154017
C	-1.6078714146	-2.9317823058	-1.0743061074	-0.012074
O	-1.536519856	-4.1967119993	-0.630904791	-0.163473
N	-1.2938756728	-4.1773255772	 0.7378128519	-0.133009
C	-1.2287040528	-2.9094553224	 1.0573157514	-0.037038
H	 1.0060329747	 1.9855063669	 0.2288339064	 0.11689
H	-0.3669277642	 1.9599586949	-0.8851729515	 0.116152
H	-0.6460161181	 1.9982536895	 0.8596605079	 0.116314
H	 0.6752240608	-0.3376387071	-0.6603587909	 0.104557
H	 0.4012849473	-0.2952039094	 1.0697646247	 0.102308
H	-2.079923747	-0.1465012142	 0.6637604653	 0.111519
H	-1.7986721819	-0.2045157934	-1.0654507801	 0.105854
H	-1.7997528317	-2.8146905787	-2.1300525472	 0.147139
H	-1.047355437	-2.6407747741	 2.0893095531	 0.128269
47.8482	88.0753	119.5036	239.069	308.1848	314.5194	380.6615	618.8136	659.5924	729.6383	744.6351	841.9015	872.9715	895.8463	904.3181	914.2741	938.3944	1022.7026	1045.5388	1092.3933	1113.2434	1150.878	1206.0049	1252.0576	1281.1254	1318.3379	1324.2583	1386.6221	1400.0858	1413.1182	1475.5881	1484.0545	1493.3022	1498.2936	1510.3009	1652.5441	3018.2143	3028.6463	3032.0173	3050.1226	3070.9014	3098.1998	3106.1793	3235.6822	3260.7743
CCCC1=CON=C1	CCCc1conc1	
InChI=1S/C6H9NO/c1-2-3-6-4-7-8-5-6/h4-5H,2-3H2,1H3	InChI=1S/C6H9NO/c1-2-3-6-4-7-8-5-6/h4-5H,2-3H2,1H3
