14
gdb 24461	3.68857	1.66395	1.18423	2.4431	62.55	-0.2232	-0.0049	0.2183	954.1173	0.104259	-473.839155	-473.832851	-473.831907	-473.870011	24.232	
C	 0.0335002468	 1.3754116005	 0.0261846064	-0.000595
O	 1.3201364202	 1.926646541	 0.0064937975	-0.238339
C	 2.0921139019	 1.6376918174	 1.1809317226	-0.194007
C	 1.829528751	 0.2070616895	 1.4861149152	 0.161727
C	 0.8952676518	-0.5385100402	 0.8533442733	 0.324749
O	 0.0259043642	-0.0558992765	-0.0573895673	-0.253162
N	 0.9485055208	-1.8463126572	 1.2769468348	-0.3271
C	 1.9095937306	-1.8303762672	 2.1484185989	 0.054149
O	 2.502649204	-0.625385325	 2.3411535472	-0.182278
H	-0.5013456678	 1.6616640291	 0.9454852013	 0.103294
H	-0.4827265606	 1.7345388981	-0.8633588013	 0.136517
H	 3.134972498	 1.833887321	 0.9109025665	 0.141507
H	 1.821436594	 2.3177598463	 2.0040634184	 0.117665
H	 2.2871926452	-2.6521137168	 2.7351885564	 0.155873
126.012	217.1718	315.378	392.574	415.5455	483.0356	589.3819	633.7332	727.6938	738.4515	785.1168	816.5176	932.2706	955.843	987.7424	1036.2081	1087.8799	1106.5828	1136.1099	1193.6486	1225.8038	1270.3688	1317.4627	1321.469	1356.3373	1429.6015	1463.9187	1498.2107	1510.2881	1538.1432	1693.3529	2975.7778	2984.7461	3070.0611	3147.3404	3284.58
C1OCC2=C(O1)N=CO2	C1OCc2c(O1)nco2	
InChI=1S/C5H5NO3/c1-4-5(6-2-8-4)9-3-7-1/h2H,1,3H2	InChI=1S/C5H5NO3/c1-4-5(6-2-8-4)9-3-7-1/h2H,1,3H2
