16
gdb 127994	2.53367	1.67262	1.01396	3.8285	80.7	-0.209	-0.0422	0.1668	1126.9921	0.124133	-434.057831	-434.04917	-434.048226	-434.091332	31.503	
C	 0.0533161509	 1.3570554225	-0.1741886761	-0.32264
N	 0.0000595421	-0.0940837826	-0.2335053571	-0.340725
C	-1.0874477603	-0.6772158471	 0.0770616779	 0.421412
O	-2.1940423269	 0.0191722261	 0.459668723	-0.297791
N	-3.4182231159	-0.5856252572	 0.8323309587	-0.121538
C	-3.4227252539	-1.8764808928	 0.7828683093	 0.050851
C	-2.3489361535	-2.728618811	 0.3972604432	-0.250642
C	-1.1715064074	-2.1461572938	 0.0322505524	 0.296356
N	-0.0474774958	-2.7596042171	-0.3869376638	-0.573987
H	 1.055073639	 1.6904200503	-0.4543779398	 0.115265
H	-0.6725028071	 1.8190470856	-0.856455436	 0.128736
H	-0.1733761443	 1.7335654044	 0.8321108117	 0.128257
H	-4.3777273033	-2.3042564468	 1.0768078876	 0.128545
H	-2.4846595754	-3.8032143083	 0.395255107	 0.097005
H	 0.0554542686	-3.7572447499	-0.3427712436	 0.262929
H	 0.7544223333	-2.1640187621	-0.5336688144	 0.277968
76.0028	118.0458	181.7669	200.8884	211.1527	217.335	337.8911	510.1088	514.9884	533.104	571.4375	584.4209	590.436	725.0273	767.1523	827.0127	897.5754	942.9733	948.5369	1031.492	1061.1267	1110.869	1114.3902	1169.0122	1204.059	1326.9612	1380.1328	1437.4666	1446.5983	1487.3112	1495.2721	1580.3511	1631.3633	1686.6958	1721.5789	3004.8022	3054.5583	3109.3719	3170.5929	3200.8539	3575.0937	3732.2112
CN=C1ON=CC=C1N	C[N]C1=C([CH]C=NO1)N	
InChI=1S/C5H7N3O/c1-7-5-4(6)2-3-8-9-5/h2-3H,6H2,1H3	InChI=1S/C5H7N3O/c1-7-5-4(6)2-3-8-9-5/h2-3H,6H2,1H3
