16
gdb 37871	3.3062	2.24712	1.79954	0.5447	71.77	-0.232	-0.0056	0.2264	783.9827	0.127701	-400.649364	-400.643916	-400.642972	-400.678743	24.343	
N	-0.0827968915	 1.5179130427	-0.009551871	-0.406449
C	 1.4366779652	 1.2468556255	 0.0259526654	-0.123032
C	 1.2530567882	 0.0060551129	 0.9338119806	 0.091368
O	 2.0973263028	-1.0536973751	 0.6033230052	-0.273005
C	 1.7778288019	-1.1955502861	-0.8327478263	-0.025863
C	 0.4886546454	-2.027665366	-0.8871867298	-0.065977
C	-0.5531477294	-1.2830580314	-0.4521167736	-0.244278
C	 0.058384024	 0.0268643356	-0.1246981073	 0.273818
C	 1.2368415215	 0.2102377267	-1.107865571	-0.005233
H	-0.3982156068	 1.7697714024	 0.9333035531	 0.21058
H	 2.1477586986	 2.0707451891	 0.0938919179	 0.082904
H	 1.064398975	 0.0879358338	 2.0039456859	 0.087239
H	 2.6525807461	-1.5856129161	-1.348941323	 0.080868
H	 0.4731747421	-3.0945966319	-1.0720984169	 0.106621
H	-1.5527586428	-1.6340465771	-0.2303963157	 0.115112
H	 0.9926322095	 0.5229040649	-2.1201632335	 0.095327
368.9459	400.2993	447.3914	474.0779	570.7681	649.1441	704.7524	718.4016	754.1685	777.8876	795.5606	852.1826	877.8927	897.9256	913.7903	934.1778	937.3927	978.8839	998.7443	1030.8856	1076.5686	1079.1515	1122.1486	1132.3676	1141.1773	1183.0286	1225.6695	1247.5884	1251.6993	1280.5571	1287.9178	1302.0774	1355.2521	1369.4154	1569.8795	3109.2324	3134.0387	3141.3337	3158.1766	3202.7176	3225.0153	3376.0255
N1C2C3OC4C=CC13C24	N1[C@H]2[C@@H]3O[C@H]4C=C[C@@]13[C@@H]24	
InChI=1S/C7H7NO/c1-2-7-4-3(1)9-6(7)5(4)8-7/h1-6,8H	InChI=1S/C7H7NO/c1-2-7-4-3(1)9-6(7)5(4)8-7/h1-6,8H/t3-,4+,5+,6-,7-/m0/s1
