20
gdb 35950	3.12298	1.14423	0.88712	4.5125	84.84	-0.2581	-0.0028	0.2554	1313.2055	0.173343	-366.044407	-366.036028	-366.035083	-366.077535	32.258	
N	 0.1433719541	-1.2435552288	 0.2328141834	-0.324854
C	 0.074528668	-0.0940444409	 0.1355555143	 0.256274
C	-0.0170820682	 1.3661667498	 0.0280485822	-0.187717
C	-0.7916175481	 1.9362635366	 1.2494120537	-0.184791
C	-1.3308487434	 3.3568864325	 1.0371629799	-0.206512
C	-0.2854850572	 4.4706273142	 0.8881243983	-0.180142
C	 0.5953251297	 4.3734177719	-0.3726208611	-0.253882
C	 1.616034379	 3.2610808232	-0.3473222281	-0.077518
C	 1.3680732607	 1.9652409127	-0.1698222499	-0.035919
H	-0.623294389	 1.5716131528	-0.8676434667	 0.133515
H	-1.6364996127	 1.2709955686	 1.455713812	 0.118344
H	-0.1362305856	 1.8990921269	 2.1264263396	 0.116133
H	-1.9846920002	 3.3591843044	 0.1531293584	 0.096979
H	-1.9776900605	 3.5982776258	 1.8886399481	 0.10323
H	-0.8148692393	 5.4304218492	 0.862889308	 0.09856
H	 0.3592430336	 4.4942115463	 1.7754753118	 0.102026
H	-0.0575397391	 4.2591076296	-1.2514585043	 0.110049
H	 1.1157782493	 5.3257635221	-0.5124219185	 0.104981
H	 2.6538555473	 3.5544157424	-0.4858855535	 0.098273
H	 2.1938773015	 1.2608128005	-0.1682337678	 0.11297
67.6273	151.0771	173.6819	232.2164	288.6316	324.756	349.6864	469.7046	471.5833	546.3836	561.9243	647.523	708.3269	789.8817	831.1867	854.379	901.2853	937.4058	965.5689	997.363	1014.6267	1044.9128	1074.19	1097.9713	1118.963	1158.0628	1219.4507	1251.5404	1274.977	1285.6965	1309.6455	1319.7303	1360.3683	1371.2716	1387.0149	1398.7923	1422.8616	1480.164	1482.5453	1487.5511	1493.1765	1723.9714	2359.0358	2990.6795	2996.1952	3007.3205	3024.3643	3040.9378	3059.9624	3066.8141	3074.1642	3087.5211	3151.6244	3182.5211
N#CC1CCCCC=C1	N#C[C@H]1CCCCC=C1	
InChI=1S/C8H11N/c9-7-8-5-3-1-2-4-6-8/h3,5,8H,1-2,4,6H2	InChI=1S/C8H11N/c9-7-8-5-3-1-2-4-6-8/h3,5,8H,1-2,4,6H2/t8-/m1/s1
