16
gdb 34289	3.45142	1.50667	1.34849	4.9865	72.56	-0.2708	-0.0132	0.2576	968.0879	0.126508	-400.757988	-400.751157	-400.750213	-400.789045	27.505	
N	 0.0576054521	-1.1194286534	 0.0251625289	-0.334051
C	 0.0454271844	 0.0350855628	 0.0097586106	 0.193227
C	-0.0339156211	 1.4883780467	-0.0021848454	 0.252368
C	-0.7126076612	 2.1415315311	 1.2601900222	-0.252194
C	-0.1040742862	 3.5701514145	 1.1937358285	-0.219922
C	 0.7885125125	 3.4535264385	-0.0850946341	-0.000114
O	 1.2596841165	 2.1006502339	 0.0267095754	-0.267178
C	-0.154913539	 3.3645963874	-1.2773547521	-0.082126
C	-0.6765180228	 2.1408983585	-1.231237752	-0.114843
H	-1.8012903882	 2.1152241888	 1.197483641	 0.119637
H	-0.3992039057	 1.610414947	 2.1603568267	 0.13062
H	-0.8546743828	 4.3584765559	 1.1112859118	 0.111026
H	 0.519050907	 3.771773338	 2.0672720827	 0.119425
H	 1.6283780796	 4.1424209329	-0.1500535563	 0.094751
H	-0.4137305901	 4.1813487165	-1.9367637958	 0.119809
H	-1.454277875	 1.6900525107	-1.8301146523	 0.129565
149.6527	166.1118	253.2889	372.9064	463.6004	513.1737	539.2296	549.2856	605.4503	710.2179	728.5141	793.4921	831.2209	853.4953	882.3136	917.7006	939.4462	951.6672	976.9646	988.4172	1031.1827	1065.5249	1096.2895	1171.3282	1183.7405	1229.4366	1252.5078	1285.829	1311.7057	1326.3702	1338.2323	1481.7089	1499.9293	1644.1898	2372.0466	3075.2416	3087.0948	3122.6136	3141.9232	3145.6503	3227.2207	3254.6346
N#CC12CCC(O1)C=C2	N#C[C@@]12CC[C@@H](O1)C=C2	
InChI=1S/C7H7NO/c8-5-7-3-1-6(9-7)2-4-7/h1,3,6H,2,4H2	InChI=1S/C7H7NO/c8-5-7-3-1-6(9-7)2-4-7/h1,3,6H,2,4H2/t6-,7+/m0/s1
