21
gdb 117777	2.13924	1.02878	0.92786	2.0023	80.98	-0.2625	0.0247	0.2871	1437.1458	0.178529	-424.188802	-424.177642	-424.176698	-424.225127	40.545	
C	 0.1216479054	 1.6485432227	 0.0589372714	-0.388563
C	 0.0025010038	 0.1217771062	 0.0298067719	-0.182462
C	 0.6089528485	-0.4805846879	-1.2423422012	-0.184676
C	 0.6850680177	-2.026201759	-1.2519686101	 0.11462
O	 1.3538282704	-2.5334590713	-0.0963125286	-0.448992
C	-0.7140846342	-2.6875494216	-1.2100875765	-0.082368
O	-1.5270879962	-2.299771521	-2.2956545951	-0.418274
C	 1.3656606421	-2.4679010809	-2.4817881982	 0.293952
C	 1.9068995877	-2.8261026497	-3.495225233	-0.467505
H	 1.1698550009	 1.9665479328	 0.0247022121	 0.111006
H	-0.3887376069	 2.1037698047	-0.7970148558	 0.116783
H	-0.3220141338	 2.0626596953	 0.9696044261	 0.112984
H	 0.5003367785	-0.3110078071	 0.9040368551	 0.10651
H	-1.0550319558	-0.1560253082	 0.1042862925	 0.108392
H	 0.0348533626	-0.1682612536	-2.1209679986	 0.116791
H	 1.6278729398	-0.0949762824	-1.3814517082	 0.088679
H	 2.2793753703	-2.2719965455	-0.1506755477	 0.285547
H	-0.5696676093	-3.7750859334	-1.1590532392	 0.105098
H	-1.2262963973	-2.3729572012	-0.298126966	 0.122831
H	-1.0887078578	-2.598750119	-3.1011841282	 0.287711
H	 2.3992722237	-3.1440799499	-4.3814578428	 0.201935
63.7077	77.3665	111.1339	120.0843	197.946	231.134	248.6429	253.2581	255.2668	333.7617	357.0293	408.4344	448.9492	458.0388	572.9615	610.0419	627.8427	672.5718	748.069	755.9454	858.1036	896.5326	937.2881	995.2656	1042.7735	1065.9297	1095.3709	1127.376	1138.9966	1160.7149	1238.231	1261.082	1308.4787	1331.0239	1372.6118	1375.0779	1396.5836	1413.7815	1419.1741	1473.9651	1494.5667	1500.3704	1507.3799	1510.8389	2220.0076	3017.2522	3019.8945	3028.9698	3041.3425	3067.7079	3083.1453	3100.9652	3103.5201	3111.8858	3497.1156	3788.4604	3811.3482
CCCC(O)(CO)C#C	CCC[C@@](O)(CO)C#C	
InChI=1S/C7H12O2/c1-3-5-7(9,4-2)6-8/h2,8-9H,3,5-6H2,1H3	InChI=1S/C7H12O2/c1-3-5-7(9,4-2)6-8/h2,8-9H,3,5-6H2,1H3/t7-/m1/s1
