20
gdb 51735	3.26853	0.993	0.84388	2.9077	80.96	-0.2151	-0.0233	0.1917	1395.4711	0.169203	-403.110705	-403.101662	-403.100717	-403.145323	33.362	
O	-0.4124246943	 0.1149795344	 0.2944740152	-0.237422
C	-0.0902542196	 1.2386063863	 0.0113641087	 0.157812
C	 1.3478479813	 1.7131276054	-0.1377361837	-0.245439
N	 1.4556070245	 2.7068927385	-1.1766546496	-0.124019
C	 1.5418350956	 2.2683688704	-2.5889852434	-0.171813
C	 2.5529731599	 3.411231864	-2.8591720579	-0.314957
C	 2.6692005143	 3.5178301826	-1.3365483503	 0.38817
C	 3.0824484245	 4.6673193922	-0.4813912882	-0.323708
C	 3.9342444471	 3.4066887268	-0.5312592878	-0.334219
H	-0.8378727466	 2.0462304653	-0.1574337906	 0.083943
H	 1.6106205527	 2.1803460249	 0.8237676803	 0.127428
H	 2.0027691666	 0.8341811034	-0.2668897454	 0.10644
H	 1.9935064647	 1.2709931009	-2.7011877563	 0.097188
H	 0.5911098103	 2.2902409914	-3.1302539041	 0.107218
H	 3.4600523987	 3.1416332135	-3.4015253812	 0.110531
H	 2.0978492755	 4.2902672554	-3.3211793153	 0.114284
H	 3.4518984821	 5.5658722823	-0.9652938555	 0.115424
H	 2.5149097838	 4.8509019887	 0.4259761294	 0.11367
H	 3.9396989363	 2.7729545083	 0.3497724349	 0.115328
H	 4.8836424425	 3.4414111251	-1.056692459	 0.114141
59.6197	76.9868	107.5725	157.491	236.3734	276.3873	331.5234	399.1247	448.2646	509.6892	562.9519	726.5895	761.1713	768.9011	814.0085	858.1424	894.7839	912.885	949.0958	986.2534	998.8337	1048.8845	1062.0539	1069.2494	1110.3857	1124.4424	1158.7646	1186.129	1186.5927	1212.4882	1249.3158	1251.3091	1267.8382	1335.6293	1346.081	1378.5688	1402.8345	1450.7848	1457.5587	1487.5465	1498.1594	1524.8597	1838.6504	2884.9807	2956.0469	2988.0092	3020.7602	3067.9778	3076.9812	3121.4052	3124.6638	3131.8421	3199.8528	3214.3864
O=CCN1CCC11CC1	O=CCN1CCC21CC2	
InChI=1S/C7H11NO/c9-6-5-8-4-3-7(8)1-2-7/h6H,1-5H2	InChI=1S/C7H11NO/c9-6-5-8-4-3-7(8)1-2-7/h6H,1-5H2
