17
gdb 35288	4.10019	0.81749	0.73049	3.0828	74.04	-0.2725	0.0124	0.2848	1504.2485	0.135907	-417.965535	-417.956896	-417.955952	-418.000151	30.841	
N	-0.3493189669	-1.0542721018	 0.5866373029	-0.334559
C	-0.166209527	 0.0520752157	 0.3053147905	 0.331574
C	 0.0605581745	 1.4234519037	-0.0846337341	-0.204405
N	 0.7128373517	 2.2970519569	 0.9134069098	-0.314369
C	 1.44040866	 1.9594462545	-0.3114953673	 0.002905
C	 2.6848540254	 1.1146909063	-0.1524420937	-0.254287
C	 3.8610598867	 1.9666415425	 0.2640400853	 0.09887
C	 5.2111118694	 1.7516788343	-0.2662662455	-0.176812
O	 4.4005999684	 2.8263578868	-0.7475390209	-0.242296
H	-0.7374636638	 1.8388540669	-0.6939474895	 0.134352
H	 0.3079013673	 3.2280502945	 0.8618996763	 0.248852
H	 1.5111653442	 2.725906226	-1.0810812184	 0.11823
H	 2.5069063084	 0.3382624588	 0.5989058639	 0.133605
H	 2.9106419782	 0.6189956506	-1.103074059	 0.115386
H	 3.7622768432	 2.4419574113	 1.2406724341	 0.106821
H	 6.0785979964	 2.0467662568	 0.3218689192	 0.119257
H	 5.3848372139	 0.9435766362	-0.9758848735	 0.116875
54.2537	69.0858	103.806	160.6726	234.3843	317.0909	356.4397	430.1895	487.422	576.0201	617.7228	785.8402	809.8543	827.1786	860.9227	908.5422	935.0789	955.1861	974.133	1020.4526	1083.4176	1101.1275	1141.3019	1160.1068	1171.1362	1192.1619	1221.8202	1244.8852	1282.8189	1292.9562	1319.2482	1400.6132	1446.2078	1457.0764	1461.4299	1531.0298	2359.8369	3046.3902	3084.6113	3092.5224	3112.3502	3133.2234	3151.2846	3171.9454	3512.5384
N#CC1NC1CC1CO1	N#C[C@H]1N[C@H]1C[C@H]1CO1	
InChI=1S/C6H8N2O/c7-2-6-5(8-6)1-4-3-9-4/h4-6,8H,1,3H2	InChI=1S/C6H8N2O/c7-2-6-5(8-6)1-4-3-9-4/h4-6,8H,1,3H2/t4-,5-,6+/m0/s1
