21
gdb 73683	2.28353	1.78383	1.36944	1.672	76.48	-0.2408	0.0773	0.3182	1043.1857	0.18483	-424.24103	-424.233064	-424.23212	-424.273358	31.539	
C	 0.0443124026	 1.5031653236	-0.011972189	-0.473171
C	-0.0365769348	-0.0244534329	-0.0025941616	 0.303249
C	-1.4697888536	-0.5783380637	 0.1117703331	-0.282671
C	-1.2722166703	-1.8678906556	 0.9144947873	-0.09299
O	-0.2318076963	-1.5742896508	 1.8415810828	-0.264742
C	 0.6780233779	-0.6660264047	 1.230361107	 0.057909
C	 1.9273415928	-1.3526714142	 0.6279690327	-0.105074
O	 2.0801069694	-0.8309268533	-0.6846717144	-0.247275
C	 0.7666155608	-0.6279023447	-1.1792539362	-0.136175
H	 1.0856191039	 1.833479197	-0.0857473182	 0.128255
H	-0.501439592	 1.9223707688	-0.8645191944	 0.11466
H	-0.383786534	 1.9274020396	 0.9023965968	 0.116312
H	-2.1009300339	 0.1205840448	 0.6701309732	 0.10499
H	-1.9381504065	-0.7516258675	-0.8621241859	 0.101445
H	-2.152891202	-2.1764017025	 1.4844323402	 0.110229
H	-0.9862059228	-2.7032504051	 0.2554451185	 0.091209
H	 0.9516222992	 0.0719074269	 1.9902262955	 0.081062
H	 2.8504193888	-1.1509780943	 1.1768772701	 0.108515
H	 1.7578840439	-2.441264891	 0.6139093909	 0.095633
H	 0.3240174745	-1.5833958573	-1.5088187316	 0.082065
H	 0.8320829825	 0.0360534769	-2.0456798468	 0.106568
85.1741	179.8903	235.875	252.3797	273.5623	357.7873	373.9592	430.2845	562.2818	593.0969	641.4679	658.9932	804.5834	842.036	920.045	929.1066	951.5718	967.446	976.666	988.8866	1005.9665	1033.1151	1060.1269	1108.8022	1118.8957	1170.7737	1182.7755	1208.9133	1234.9458	1251.4228	1260.3861	1278.6426	1295.4989	1338.8903	1347.8769	1367.2021	1387.9371	1397.665	1413.9996	1485.4374	1493.8198	1500.0801	1506.0166	1513.8022	1527.8245	2958.25	2975.2063	2983.7167	3025.9834	3047.5765	3058.6433	3086.2058	3086.6606	3094.2358	3096.3674	3099.1937	3102.9343
CC12CCOC1COC2	C[C@]12CCO[C@H]1COC2	
InChI=1S/C7H12O2/c1-7-2-3-9-6(7)4-8-5-7/h6H,2-5H2,1H3	InChI=1S/C7H12O2/c1-7-2-3-9-6(7)4-8-5-7/h6H,2-5H2,1H3/t6-,7+/m0/s1
