18
gdb 47136	3.33135	1.3147	1.02445	2.712	82.34	-0.2337	-0.0222	0.2115	1173.6093	0.149463	-401.964604	-401.956846	-401.955902	-401.997078	29.996	
N	 0.0351423722	 1.2675128298	-0.306281294	-0.558927
C	 0.0040698664	 0.0095592721	-0.1452536428	 0.347723
O	 1.1177757647	-0.7780924312	-0.0198120745	-0.24152
C	 0.7249999347	-2.1433436907	 0.1469847838	-0.136137
C	-0.7698151302	-2.1105795646	 0.1101625427	-0.234312
C	-1.198140481	-0.8524028764	-0.0608532686	 0.299121
C	-2.5909064035	-0.3855992197	-0.151318456	-0.120905
C	-3.0429112967	 0.9479253106	 0.422475995	-0.265598
C	-3.010398493	 0.7570469731	-1.062494166	-0.265597
H	 0.9991029943	 1.6024513492	-0.3282827704	 0.222828
H	 1.1672623853	-2.7425566081	-0.6607374895	 0.127068
H	 1.1288841864	-2.5166205139	 1.0980926736	 0.127063
H	-1.3833858224	-2.9962827507	 0.2105381502	 0.112506
H	-3.3099288034	-1.194534667	-0.0630760927	 0.080671
H	-4.0002991441	 0.9583862223	 0.9316061013	 0.10795
H	-2.2784672282	 1.5852637827	 0.8476582074	 0.145059
H	-2.2248337937	 1.2704252913	-1.6016492826	 0.145056
H	-3.9448975378	 0.633178221	-1.5984810669	 0.107951
79.815	155.9652	195.7821	208.6025	320.59	361.5948	466.7886	473.4532	617.8131	733.7712	764.9623	789.6065	804.3941	818.7483	834.3291	869.4691	910.5835	919.1075	961.8724	996.0462	1029.6972	1057.5477	1069.7832	1095.3247	1110.474	1135.9593	1195.3406	1198.348	1206.2893	1247.4913	1248.2773	1367.8776	1395.7256	1405.5768	1455.5059	1491.4744	1504.5823	1691.8022	1746.2506	3008.095	3034.5795	3142.1345	3142.7738	3150.2562	3222.2326	3238.693	3249.6568	3481.6556
N=C1OCC=C1C1CC1	[NH]C1=C([CH]CO1)C1CC1	
InChI=1S/C7H9NO/c8-7-6(3-4-9-7)5-1-2-5/h3,5,8H,1-2,4H2	InChI=1S/C7H9NO/c8-7-6(3-4-9-7)5-1-2-5/h3,5,8H,1-2,4H2
