22
gdb 13808	3.61609	1.1194	0.96416	1.3413	78.92	-0.2576	0.0784	0.336	1296.6564	0.198626	-350.192352	-350.182496	-350.181552	-350.227081	36.006	
C	 0.6833859612	 1.0566989516	-0.9881984037	-0.384707
C	 1.4009536878	-0.2549907848	-0.6348590257	 0.019674
C	 2.8863863694	-0.1914928964	-1.0209291621	-0.387051
C	 1.2294640185	-0.5691666344	 0.8432225741	 0.015284
C	-0.0148334208	-1.2349763132	 1.3751638943	-0.301647
C	 1.3080928031	-1.9601493405	 1.4366788465	 0.000491
C	 1.5367703973	-3.1999869274	 0.6133236189	-0.10121
O	 0.9709167255	-4.2998889753	 1.3183319737	-0.421113
H	 1.115535186	 1.8986175739	-0.434084987	 0.110019
H	 0.7733232139	 1.281873929	-2.0561675673	 0.106391
H	-0.3808726213	 1.0056570712	-0.7386472577	 0.115022
H	 0.930787952	-1.0562953987	-1.2193652248	 0.06832
H	 3.4010448668	 0.5956416314	-0.4570418317	 0.11138
H	 3.395645715	-1.1368552714	-0.8094837668	 0.113356
H	 3.0104383413	 0.0300181492	-2.0863646246	 0.107585
H	 1.6484484499	 0.2066472576	 1.482861827	 0.075977
H	-0.4598071577	-0.8758692365	 2.2964759501	 0.10813
H	-0.7360458243	-1.5958028003	 0.6472324772	 0.10879
H	 1.7687629415	-2.024558406	 2.4189367437	 0.08653
H	 1.0755048081	-3.0934295705	-0.380222811	 0.082534
H	 2.6171124293	-3.3533383331	 0.4563755729	 0.083494
H	 1.1848653176	-5.1033463652	 0.8346289241	 0.282752
58.2473	85.6341	129.1387	190.7755	222.1314	242.0667	260.0091	288.3349	334.3597	342.627	415.1939	476.9536	588.7428	754.2808	811.6935	861.8971	898.9607	919.4067	925.3796	957.1786	986.6713	1025.2692	1049.0716	1065.67	1071.7553	1132.7437	1145.9222	1176.4596	1185.7206	1209.4203	1243.3018	1259.5553	1283.1118	1315.2226	1342.2973	1385.8791	1397.029	1416.3517	1430.2289	1471.5898	1485.3641	1490.2399	1495.1961	1502.6098	1510.0645	1520.0305	2962.796	2994.4822	3020.5067	3023.3051	3028.3629	3087.1531	3093.9677	3102.0384	3104.806	3111.1173	3124.2888	3142.1874	3208.7693	3823.1321
CC(C)C1CC1CO	CC(C)[C@H]1C[C@H]1CO	
InChI=1S/C7H14O/c1-5(2)7-3-6(7)4-8/h5-8H,3-4H2,1-2H3	InChI=1S/C7H14O/c1-5(2)7-3-6(7)4-8/h5-8H,3-4H2,1-2H3/t6-,7+/m0/s1
