16
gdb 13160	3.44238	1.75241	1.18829	3.5397	69.19	-0.2276	-0.0564	0.1712	978.523	0.13065	-379.915071	-379.907036	-379.906092	-379.948615	27.703	
N	 0.099659386	 1.4429143866	 0.5880090861	-0.52431
C	 0.0861364042	 0.1876101029	 0.2973522411	 0.254448
C	-1.2742072376	-0.4536096713	 0.3457884979	 0.153034
O	-1.5024819894	-1.6132235331	 0.1054424243	-0.270102
N	 1.1344098159	-0.6082118483	-0.0222301898	-0.083882
C	 1.2704336575	-1.976825558	-0.5474534936	-0.155107
C	 2.7840153583	-1.6898465342	-0.7599310328	-0.248068
C	 2.525800852	-0.2379159619	-0.2642329405	-0.183524
H	 1.0435191469	 1.8325339574	 0.5416996996	 0.213272
H	-2.0578475837	 0.2748240211	 0.6305525883	 0.115259
H	 1.0243213447	-2.7580627828	 0.1758166606	 0.128686
H	 0.696558197	-2.1602977734	-1.4603669733	 0.125543
H	 3.4465612835	-2.2692600497	-0.1165867992	 0.121155
H	 3.1290662478	-1.7674508467	-1.7909002298	 0.120315
H	 2.6456835214	 0.5446842398	-1.0254011759	 0.115091
H	 3.0714361656	 0.0671695219	 0.6370036769	 0.11819
42.5464	103.9389	130.5741	177.1107	179.5227	287.9025	455.4443	549.1203	604.622	686.9741	766.7788	842.5342	865.1807	886.816	942.0454	965.3718	1042.6994	1045.5745	1137.4534	1141.9207	1168.0886	1199.9955	1228.7047	1251.7225	1271.6122	1295.955	1342.9972	1377.2987	1466.2588	1493.8964	1509.8887	1532.6396	1668.6799	1814.4808	2961.6202	3007.651	3047.7983	3055.561	3095.2202	3099.2593	3150.1012	3455.1126
N=C(C=O)N1CCC1	[NH][C](C=O)N1CCC1	
InChI=1S/C5H8N2O/c6-5(4-8)7-2-1-3-7/h4,6H,1-3H2	InChI=1S/C5H8N2O/c6-5(4-8)7-2-1-3-7/h4,6H,1-3H2
