22
gdb 121004	3.29789	0.87611	0.75003	1.4909	83.8	-0.238	0.0332	0.2712	1614.0872	0.193872	-404.389571	-404.379657	-404.378713	-404.425408	35.617	
C	 0.0014097509	 1.4824442178	-0.2461663963	-0.382039
C	-0.0105171244	-0.0289638933	-0.0033319902	-0.168498
C	-1.4201405819	-0.6279118818	-0.0393064459	-0.18038
C	-1.4586318974	-2.1355249345	 0.1802813517	 0.086113
C	-2.870488409	-2.7750279726	 0.0715668477	-0.207439
N	-2.7989515304	-3.6819037218	-1.0810254057	-0.306867
C	-1.6052434951	-3.6224947133	-1.5119703048	 0.405167
C	-1.0441058691	-4.3745198821	-2.6702252508	-0.471295
O	-0.7176391737	-2.8063511677	-0.8760384019	-0.264402
H	 1.0193372974	 1.8829346468	-0.2141629627	 0.113368
H	-0.422305206	 1.7289804073	-1.2260962051	 0.11531
H	-0.5887175889	 2.0121735879	 0.5102531452	 0.112645
H	 0.6061210219	-0.5334872896	-0.7551603587	 0.114238
H	 0.4498983534	-0.249536991	 0.9690314796	 0.093343
H	-2.0450763106	-0.1605773063	 0.7343800881	 0.098009
H	-1.9001002282	-0.4046513562	-1.0018638169	 0.101914
H	-0.9601126274	-2.3905853483	 1.1222906167	 0.084568
H	-3.148025489	-3.3353089667	 0.9710619488	 0.111268
H	-3.6484274391	-2.0193784255	-0.0910384413	 0.108678
H	-1.8194130979	-4.9987185965	-3.1129244626	 0.150876
H	-0.6557082416	-3.6801841767	-3.4219374706	 0.142041
H	-0.2077900938	-5.0015003559	-2.3451446844	 0.143383
41.8755	88.461	101.8227	138.0916	158.4056	237.8971	247.4829	305.8508	331.0548	401.4275	483.2239	612.4852	656.7732	740.1956	764.3761	839.7175	878.5191	905.248	948.8399	961.9712	984.3714	1022.3339	1048.7852	1066.5518	1076.1804	1090.4422	1133.6282	1153.8304	1219.9247	1251.7743	1269.8496	1289.5921	1328.0963	1331.0147	1353.9427	1386.6469	1404.603	1413.0046	1419.659	1472.4303	1475.6718	1476.9409	1492.8622	1500.4693	1505.1905	1509.8975	1743.9875	3008.9795	3021.1109	3028.7584	3029.8973	3034.114	3050.1789	3050.7757	3065.7726	3071.6308	3097.7749	3102.7905	3106.7728	3165.8418
CCCC1CN=C(C)O1	CCC[C@H]1CN=C(C)O1	
InChI=1S/C7H13NO/c1-3-4-7-5-8-6(2)9-7/h7H,3-5H2,1-2H3	InChI=1S/C7H13NO/c1-3-4-7-5-8-6(2)9-7/h7H,3-5H2,1-2H3/t7-/m0/s1
