16
gdb 130204	3.28001	1.24017	0.95249	3.5514	72.52	-0.2007	-0.0248	0.176	1178.2717	0.125048	-434.094795	-434.086113	-434.085169	-434.129028	31.414	
N	 0.2784534312	 1.2886408926	 0.3873456354	-0.589906
C	 0.1391197542	-0.0604953933	 0.1091486144	 0.318789
N	-1.0610744599	-0.6114296543	-0.0491160705	-0.308952
N	-0.7980577821	-1.9338880447	-0.2201569669	-0.192118
C	 0.5175938251	-2.222029859	-0.1763408208	-0.12521
C	 1.1843773431	-1.0293233295	 0.0282534227	 0.144917
C	 2.6626818518	-0.7770454345	 0.109263675	-0.408554
C	 3.0085304042	-0.1346820792	 1.4418890938	 0.166439
O	 3.2743734093	 1.033226835	 1.5759565889	-0.245221
H	 1.1856733157	 1.6848381356	 0.1938931989	 0.257868
H	-0.4888802632	 1.8590915306	 0.0648983955	 0.253252
H	-1.5665182142	-2.5650621497	-0.3599929072	 0.273834
H	 0.8894769645	-3.2270565224	-0.3047585081	 0.131667
H	 3.2053288031	-1.724886997	 0.0168231042	 0.116745
H	 3.0074196026	-0.1031425648	-0.6844788722	 0.120964
H	 2.9537707645	-0.8184825054	 2.317779947	 0.085487
41.8388	67.0047	153.6896	231.6914	282.3358	311.5823	366.8901	419.6861	437.6229	500.1233	540.6341	640.2496	655.1235	742.7695	754.2676	790.3057	876.5879	936.3262	999.2313	1058.96	1064.3229	1101.1269	1178.1942	1218.5175	1258.8284	1284.5389	1341.4763	1416.0248	1429.839	1461.8909	1494.4784	1542.3478	1622.0164	1651.4857	1821.6091	2889.7799	3023.96	3079.1182	3252.653	3573.3695	3682.3907	3694.9739
NC1=NNC=C1CC=O	Nc1n[nH]cc1CC=O	
InChI=1S/C5H7N3O/c6-5-4(1-2-9)3-7-8-5/h2-3H,1H2,(H3,6,7,8)	InChI=1S/C5H7N3O/c6-5-4(1-2-9)3-7-8-5/h2-3H,1H2,(H3,6,7,8)
