18
gdb 94067	4.58089	0.99375	0.85776	4.2372	73.64	-0.2587	0.0095	0.2683	1324.6146	0.147974	-439.095177	-439.086716	-439.085772	-439.128241	31.6	
C	-0.0098422212	 1.5162097296	 0.0440734776	-0.410118
C	 0.0224727312	-0.0012844722	-0.0094042706	 0.121503
C	 0.7306722419	-0.5386273762	-1.2519020526	-0.083661
O	 0.8321042792	-1.9593387174	-1.2140892422	-0.261758
C	 1.5072550141	-2.3917550107	-0.045739796	-0.028076
C	 0.7876424169	-1.8664671882	 1.2110108665	-0.094903
O	 0.7131891049	-0.4599847074	 1.155533322	-0.263091
C	 1.5578380531	-3.8569388215	-0.0541490482	 0.273056
N	 1.6048367633	-5.0096261442	-0.0052420688	-0.310109
H	 1.0054084854	 1.9237673051	 0.0233458501	 0.129524
H	-0.5673289216	 1.9204415818	-0.8060543661	 0.123421
H	-0.4929498838	 1.8489995815	 0.9659016116	 0.135627
H	-1.0028076973	-0.4070335556	 0.0046269538	 0.080941
H	 0.1712130966	-0.301838819	-2.1604957283	 0.121932
H	 1.7344259796	-0.0890865443	-1.3242139558	 0.099766
H	 2.5405308885	-2.0060737547	-0.0394789154	 0.120839
H	-0.214314153	-2.3194465205	 1.2603417564	 0.114955
H	 1.344551982	-2.1302291561	 2.1138092858	 0.130153
84.6648	144.9848	204.6154	213.908	261.3896	300.1485	347.1368	394.4966	460.5469	484.637	546.7422	565.0939	614.3713	818.1614	880.8898	908.4328	944.5583	1008.5206	1039.0204	1067.2978	1109.0646	1132.7289	1141.7851	1162.7913	1165.709	1269.1943	1287.5676	1311.4313	1341.1465	1368.2072	1380.2576	1410.7709	1415.944	1418.0715	1480.6066	1485.0191	1487.7055	1501.2446	2369.2522	2967.9923	2972.5963	2984.4779	2998.9295	3046.1772	3102.496	3103.923	3119.7976	3128.3956
CC1COC(CO1)C#N	C[C@H]1CO[C@@H](CO1)C#N	
InChI=1S/C6H9NO2/c1-5-3-9-6(2-7)4-8-5/h5-6H,3-4H2,1H3	InChI=1S/C6H9NO2/c1-5-3-9-6(2-7)4-8-5/h5-6H,3-4H2,1H3/t5-,6+/m0/s1
