19
gdb 81952	2.32686	1.90627	1.15628	3.5485	77.05	-0.216	0.0635	0.2794	1086.4865	0.160003	-419.238733	-419.229873	-419.228929	-419.272377	32.365	
C	-0.0726648991	 1.3773917008	 0.0168921632	-0.342136
N	-0.0395565654	-0.0480504448	 0.2397846699	-0.111065
C	-1.1768804831	-0.9023131383	 0.1005807713	-0.014241
C	-1.310205973	-1.718032928	-1.1761103367	-0.339199
C	-0.6096201341	-2.292639302	 0.0453543343	-0.014233
N	 0.8042072475	-2.1160084945	 0.1575863873	-0.111078
C	 1.7701948414	-3.1392393722	-0.1626274613	-0.342136
C	 1.1452725128	-0.7694393683	 0.1664509862	 0.452641
O	 2.2683927657	-0.3088593015	 0.1077136283	-0.434024
H	 0.9520203217	 1.7441680402	 0.0981825521	 0.164117
H	-0.462702821	 1.627183149	-0.9796599239	 0.116966
H	-0.6955515023	 1.877807149	 0.7671869891	 0.119993
H	-2.0544559712	-0.6476521453	 0.685266559	 0.105758
H	-2.2950173072	-2.1107873929	-1.4054455988	 0.118239
H	-0.7066193175	-1.4377408028	-2.0327715651	 0.123574
H	-1.0428163976	-3.126898009	 0.5868369238	 0.10575
H	 1.6380978184	-3.5219342817	-1.1842615349	 0.116965
H	 2.7612812753	-2.6900997586	-0.0782056907	 0.164117
H	 1.6953956187	-3.9818098892	 0.5343862369	 0.119992
88.1454	116.8145	159.2391	163.9349	173.3893	265.6912	302.2959	356.4041	494.4052	516.3496	578.6011	675.9889	754.1798	761.3356	800.6318	817.0673	965.3197	966.3798	980.551	1030.9927	1068.5043	1096.0965	1103.3992	1117.1014	1162.3777	1165.7892	1200.4903	1259.7868	1294.3211	1320.6042	1333.1465	1418.0626	1419.6389	1447.0458	1464.4083	1465.9827	1490.418	1491.5917	1520.252	1525.5507	1811.2604	3002.6417	3004.3026	3060.3971	3060.6283	3129.8946	3142.1841	3142.5023	3156.458	3164.6672	3225.974
CN1C2CC2N(C)C1=O	CN1[C@H]2C[C@H]2N(C)C1=O	
InChI=1S/C6H10N2O/c1-7-4-3-5(4)8(2)6(7)9/h4-5H,3H2,1-2H3	InChI=1S/C6H10N2O/c1-7-4-3-5(4)8(2)6(7)9/h4-5H,3H2,1-2H3/t4-,5+
