18
gdb 49390	3.81501	1.1928	1.16376	3.5555	77.76	-0.2404	0.0031	0.2435	1119.035	0.148294	-401.897378	-401.889941	-401.888997	-401.92949	28.954	
O	 0.0701962168	 0.0585877794	-0.5176108463	-0.297314
C	 0.0423913811	 1.1936669264	-0.1061777689	 0.135846
N	 1.0889808494	 1.8376497885	 0.5258719638	-0.07354
C	 2.4694531256	 1.7578908265	 0.0896078838	-0.04107
C	 1.7136402843	 3.0682467199	 0.0562798047	-0.062926
C	 2.588037232	 3.6371993209	 1.200226344	-0.046932
C	 2.115796289	 3.3965117666	 2.6640380805	-0.227327
C	 2.903269163	 2.0463696233	 2.6973254588	-0.228576
C	 3.3735042243	 2.2833843398	 1.2325596464	-0.04925
H	-0.8678959491	 1.8238709352	-0.1236906461	 0.082446
H	 2.7226416054	 1.0775071864	-0.7142235865	 0.12077
H	 1.2855291957	 3.5970396925	-0.7885245408	 0.10819
H	 3.0861852854	 4.575821861	 0.9582434049	 0.076458
H	 2.4954189648	 4.1437510262	 3.3644403467	 0.100407
H	 1.0351255261	 3.3094616366	 2.7902254336	 0.108334
H	 3.727269188	 2.0385490646	 3.414269084	 0.100559
H	 2.294709063	 1.1529847735	 2.847188003	 0.116107
H	 4.4398992051	 2.2432963825	 1.0123631744	 0.077819
92.0925	151.8108	195.2177	222.48	325.013	420.4292	489.2834	676.9256	690.0028	726.1031	757.7933	789.4023	854.2601	861.4242	869.8043	905.7148	941.4209	955.4	973.2658	1018.4263	1036.9338	1049.2332	1075.402	1107.3122	1112.289	1168.1852	1203.0452	1230.4118	1246.7311	1256.7078	1272.3734	1286.2445	1299.115	1315.1381	1416.2552	1420.6113	1462.1524	1481.1263	1793.0918	2947.4469	3067.3407	3073.3379	3108.3399	3118.5506	3119.261	3135.7533	3174.5616	3200.1915
O=CN1C2C1C1CCC21	O=CN1[C@H]2[C@@H]1[C@H]1CC[C@@H]21	
InChI=1S/C7H9NO/c9-3-8-6-4-1-2-5(4)7(6)8/h3-7H,1-2H2	InChI=1S/C7H9NO/c9-3-8-6-4-1-2-5(4)7(6)8/h3-7H,1-2H2/t4-,5+,6-,7+,8?
