19
gdb 111542	2.64923	1.47842	1.14038	2.0846	73.88	-0.2316	0.057	0.2886	1119.2292	0.158413	-422.952483	-422.944019	-422.943075	-422.985756	32.304	
C	 0.0012296849	 1.5070531599	 0.1601832325	-0.513129
C	 0.0373194085	 0.0194473168	-0.0245049173	 0.268011
C	-0.8912377049	-0.9563972245	 0.7308163502	 0.048537
O	-1.01750593	-2.1578279154	-0.0326206554	-0.297055
C	 0.4082042857	-2.0180424979	-0.3069827639	 0.0349
C	 0.5840642251	-1.0535699699	 0.9199312497	-0.195159
C	 0.4868593275	-0.7842047838	-1.2546569396	-0.059649
C	-0.3510671174	-0.7859087923	-2.5247703931	-0.10145
O	 0.1501954594	-1.6985755724	-3.49568775	-0.423103
H	 0.9769739582	 1.9601192554	-0.0488350085	 0.124017
H	-0.7342092752	 1.9751944863	-0.5037887588	 0.12764
H	-0.2702221977	 1.7703027324	 1.1886400533	 0.120898
H	-1.6996888629	-0.6595201052	 1.3863445736	 0.108046
H	 0.9087751161	-2.9638455237	-0.5046689018	 0.083953
H	 1.2400946688	-1.0229716734	 1.7788390912	 0.099401
H	 1.5356453777	-0.5673429833	-1.4853438892	 0.079372
H	-1.3980389091	-1.0003280446	-2.2744150976	 0.104338
H	-0.31546602	 0.2028460245	-2.9961041302	 0.103856
H	-0.0617192347	-2.5865124988	-3.191755025	 0.286576
56.5727	150.4952	196.6693	219.4772	253.3053	274.5052	297.9208	420.2192	547.727	564.9626	642.1687	749.7193	773.0289	809.1734	833.4228	848.9857	903.1346	925.6885	949.1268	981.7619	1014.2897	1035.2565	1058.9221	1077.0771	1104.3992	1115.1451	1148.7214	1160.0078	1191.2683	1211.4047	1223.6339	1293.1893	1299.2388	1350.2805	1399.2385	1404.387	1413.7687	1430.1477	1485.7652	1497.3923	1499.0478	3021.4307	3022.9988	3054.8206	3074.7007	3085.0125	3089.1388	3140.1474	3199.5902	3213.7957	3822.9331
CC12C3OC(C13)C2CO	C[C@]12[C@H]3O[C@H]([C@@H]13)[C@H]2CO	
InChI=1S/C7H10O2/c1-7-3(2-8)5-4(7)6(7)9-5/h3-6,8H,2H2,1H3	InChI=1S/C7H10O2/c1-7-3(2-8)5-4(7)6(7)9-5/h3-6,8H,2H2,1H3/t3-,4-,5+,6+,7-/m1/s1
