20
gdb 50578	3.55144	1.10054	0.93783	3.0034	79.95	-0.2265	-0.0248	0.2017	1269.0459	0.172282	-403.137471	-403.12921	-403.128265	-403.171029	31.368	
O	-0.2064759474	 0.0319866599	 0.1171143811	-0.247144
C	-0.047328354	 1.2219888009	 0.031506402	 0.149236
C	 1.2891555374	 1.9265117645	-0.0213831871	-0.061859
C	 1.3833190964	 2.8399700488	-1.2564634461	-0.237701
C	 2.7683467364	 3.4957811022	-1.3057878686	-0.235856
C	 3.1661209783	 4.144727655	 0.0066583299	 0.015081
C	 2.2492885807	 5.0645174895	 0.7281709521	-0.248064
N	 2.545809413	 3.7418700768	 1.278150207	-0.098288
C	 1.467653128	 2.7425620159	 1.2834596077	-0.170753
H	-0.9225243371	 1.9161641416	-0.0050644186	 0.067517
H	 2.0639404649	 1.1544710362	-0.0806327045	 0.096582
H	 1.2197512086	 2.2594619089	-2.1702594694	 0.112914
H	 0.5895158463	 3.5972947135	-1.2227934775	 0.104651
H	 3.5084095479	 2.7231306992	-1.5494341581	 0.11032
H	 2.8174503761	 4.2363237282	-2.1127083079	 0.108435
H	 4.2354225024	 4.3287261153	 0.100750327	 0.091786
H	 2.6402310831	 5.9067979817	 1.2940494218	 0.113647
H	 1.2603753389	 5.2332193537	 0.3041348132	 0.10445
H	 0.5219462739	 3.2466952163	 1.5265764744	 0.101659
H	 1.6674721864	 2.043248642	 2.1023263217	 0.123387
55.7508	71.9307	184.7286	284.6589	307.479	337.8643	372.1	416.55	489.732	555.1898	636.1201	743.75	780.1009	843.7077	888.664	913.2485	938.4664	948.9166	984.2595	1023.196	1068.2669	1088.254	1110.4283	1118.4778	1128.5132	1136.5939	1173.5017	1208.1245	1240.2	1275.4903	1303.4265	1320.3105	1340.3158	1369.1957	1378.1757	1393.8851	1420.7359	1428.4406	1489.3776	1495.7167	1498.0643	1520.2929	1831.9295	2832.9878	3007.5609	3023.9379	3025.1082	3050.3922	3060.9481	3064.3857	3077.2841	3087.599	3110.0034	3168.8368
O=CC1CCC2CN2C1	O=C[C@H]1CC[C@H]2CN2C1	
InChI=1S/C7H11NO/c9-5-6-1-2-7-4-8(7)3-6/h5-7H,1-4H2	InChI=1S/C7H11NO/c9-5-6-1-2-7-4-8(7)3-6/h5-7H,1-4H2/t6-,7-,8?/m0/s1
