25
gdb 64354	1.77204	1.76982	1.41612	1.3265	86.96	-0.2555	0.0651	0.3206	1151.5225	0.228045	-389.516478	-389.506236	-389.505291	-389.550517	40.57	
C	-0.4976546156	 1.4725725361	 0.1008370588	-0.451057
C	-0.0545526081	 0.0061466885	 0.033082577	 0.283792
C	-1.3072598113	-0.872703195	-0.1672247095	-0.421897
C	 0.9587222315	-0.2621578397	-1.1040237361	-0.236529
C	 1.7271231152	-1.5501825727	-0.7021166304	-0.212571
C	 1.4457267359	-1.7586054472	 0.8082249071	-0.265464
C	 0.7370393918	-0.4689757183	 1.2967745295	 0.387982
C	 1.7681932293	 0.5556785535	 1.7929748761	-0.449946
O	-0.202168259	-0.7190424532	 2.3425543258	-0.487395
H	 0.3516064	 2.1609271275	 0.1370606981	 0.10584
H	-1.0927156967	 1.7342626924	-0.7807982668	 0.105647
H	-1.118767539	 1.6485434546	 0.9854393709	 0.121684
H	-1.8277072101	-0.5668540481	-1.0811843609	 0.100387
H	-1.0602857057	-1.9334342127	-0.2678795678	 0.10712
H	-1.9953073154	-0.7720612244	 0.6743626008	 0.130298
H	 0.4581878446	-0.3581052085	-2.0723545321	 0.091
H	 1.6511658294	 0.5817809118	-1.1967111485	 0.09033
H	 1.3861289492	-2.4127730688	-1.2810239887	 0.101792
H	 2.7965995757	-1.4475468638	-0.9058061069	 0.095764
H	 0.7708589426	-2.6024552012	 0.9731895962	 0.105276
H	 2.3563772696	-1.9616314836	 1.3811571656	 0.082321
H	 2.4880759187	 0.8309865518	 1.0162467727	 0.118222
H	 1.2813788099	 1.4644627367	 2.1539763773	 0.124472
H	 2.3415626637	 0.1258661939	 2.6239068263	 0.100249
H	 0.2923857436	-0.9313940297	 3.1404742754	 0.272686
75.4969	137.3834	214.2777	236.0127	246.5422	262.0505	288.0724	302.8976	343.868	362.6517	368.8695	397.457	478.3568	497.0907	563.2325	621.4489	688.1352	751.1091	844.1028	855.6927	902.6476	936.2307	952.4941	962.9002	967.928	996.7024	1016.1035	1037.6559	1076.9079	1102.1573	1161.2906	1191.3392	1197.214	1238.5565	1253.2444	1265.0821	1274.1963	1293.7733	1330.9782	1340.4999	1378.3606	1396.7972	1406.0928	1421.3451	1477.9913	1486.1853	1487.7652	1494.0352	1499.4541	1505.4376	1507.1281	1517.0885	1521.3712	3025.0398	3030.3413	3035.98	3041.2393	3046.059	3059.8878	3072.5064	3084.3542	3090.2043	3094.4756	3101.4724	3105.8259	3107.8969	3126.7269	3131.8723	3814.5984
CC1(C)CCCC1(C)O	CC1(C)CCC[C@]1(C)O	
InChI=1S/C8H16O/c1-7(2)5-4-6-8(7,3)9/h9H,4-6H2,1-3H3	InChI=1S/C8H16O/c1-7(2)5-4-6-8(7,3)9/h9H,4-6H2,1-3H3/t8-/m0/s1
