25
gdb 115582	2.42509	1.01299	0.94413	1.3788	88.79	-0.2592	0.0762	0.3354	1456.1059	0.227589	-389.483157	-389.472416	-389.471471	-389.518575	40.33	
C	-0.1613024295	 1.6124378285	 0.0267045055	-0.398474
C	 0.0783796721	 0.0978563192	-0.0150028948	-0.217358
C	 0.7780487902	-0.4854849724	 1.2287103913	 0.319652
C	 2.140886794	 0.1611243578	 1.4695183119	-0.463684
C	-0.1819315981	-0.5454097151	 2.4645864233	-0.260315
C	-0.4783772727	-2.0340247758	 2.1483873826	-0.227809
C	 0.7817661013	-2.0591417369	 1.2474631043	 0.02447
C	 0.7543608248	-2.8611213337	-0.0388389681	-0.113306
O	 0.7335253996	-4.237514238	 0.3238903645	-0.42486
H	 0.7763411314	 2.1753686477	 0.0127236743	 0.118641
H	-0.7480896508	 1.9327310376	-0.8399355086	 0.110654
H	-0.7129893398	 1.9080599839	 0.9254040261	 0.118018
H	-0.8876183571	-0.4036814774	-0.1511578929	 0.093235
H	 0.6732970962	-0.1418463681	-0.9065626317	 0.091097
H	 2.0521563019	 1.2303409622	 1.6881193223	 0.114668
H	 2.6467932773	-0.3058611155	 2.3209324334	 0.109079
H	 2.7943836475	 0.0550171316	 0.5945459833	 0.107476
H	 0.3625618486	-0.4230396861	 3.4056888453	 0.093906
H	-1.0298800391	 0.1451810456	 2.4691847192	 0.090763
H	-0.506389142	-2.7335827612	 2.9857320696	 0.099605
H	-1.3978643786	-2.1604617232	 1.5684511671	 0.095631
H	 1.6433535286	-2.4050688077	 1.8297983753	 0.07329
H	-0.1323983396	-2.6018565859	-0.6372800204	 0.080354
H	 1.6425121924	-2.6269302713	-0.6499915111	 0.081296
H	 0.6591937317	-4.7582726059	-0.4810912518	 0.283972
84.4526	101.9498	129.8424	147.6193	197.7929	230.4656	237.8132	269.8947	301.298	320.4178	356.2448	384.1153	457.4522	530.359	613.4084	724.9481	782.8364	796.8981	869.4893	895.8202	905.6431	955.2777	970.2404	1005.4848	1023.6296	1032.592	1057.0963	1073.6984	1104.8335	1154.071	1166.1351	1188.5993	1213.1348	1231.3507	1254.2627	1260.2516	1270.5584	1285.0856	1307.5211	1345.7083	1369.1228	1374.5481	1408.4276	1413.5897	1456.8507	1481.5762	1481.6824	1491.4827	1495.9974	1501.9278	1505.469	1512.6081	1521.5822	2954.7203	2991.657	3012.8049	3020.9592	3037.2383	3042.2516	3047.5293	3050.448	3057.7526	3084.8583	3094.0962	3096.6854	3101.3802	3111.3902	3116.3214	3826.6301
CCC1(C)CCC1CO	CC[C@@]1(C)CC[C@H]1CO	
InChI=1S/C8H16O/c1-3-8(2)5-4-7(8)6-9/h7,9H,3-6H2,1-2H3	InChI=1S/C8H16O/c1-3-8(2)5-4-7(8)6-9/h7,9H,3-6H2,1-2H3/t7-,8-/m0/s1
