22
gdb 120698	3.16013	0.80991	0.72544	3.7243	84.91	-0.2384	-0.0159	0.2225	1687.4789	0.192166	-404.350141	-404.339612	-404.338668	-404.386719	37.489	
C	-0.6386086879	 1.5854241337	 0.1182444339	-0.382336
C	-0.404390185	 0.0826553862	-0.0541781209	-0.160266
C	 0.8532754757	-0.2321923009	-0.8760152812	-0.18688
C	 1.0616936391	-1.7202379492	-1.0320227203	-0.013193
N	 0.2877159097	-2.3980594991	-2.0647525826	-0.309999
C	 1.7550236757	-2.3578999367	-2.210905251	-0.156592
C	 2.3260786814	-1.5490125365	-3.3432517133	 0.409061
C	 3.7294624387	-1.9443587018	-3.7699069227	-0.485596
O	 1.7281141199	-0.6370223927	-3.8670638349	-0.303362
H	 0.2019854119	 2.0619551543	 0.6354158561	 0.110583
H	-0.7510123056	 2.0794329962	-0.8528404384	 0.121827
H	-1.5435047255	 1.7840343653	 0.7011288805	 0.109338
H	-0.3288418434	-0.3930585598	 0.9334337605	 0.084247
H	-1.269040578	-0.3732475507	-0.5512014181	 0.111535
H	 0.7744306418	 0.2187301892	-1.8682575759	 0.142096
H	 1.735057602	 0.2027342621	-0.3855195812	 0.087123
H	 1.2104224459	-2.256576623	-0.0930153043	 0.085103
H	 0.0041767207	-3.3267793051	-1.7641449403	 0.23538
H	 2.3097787714	-3.267189681	-1.9859897255	 0.081607
H	 4.0907222658	-1.2579802511	-4.5360947396	 0.142911
H	 4.4101442465	-1.9362362773	-2.9106794356	 0.137661
H	 3.7294394591	-2.9676002222	-4.1642874749	 0.139754
49.382	77.3597	86.6044	114.3828	139.1733	202.4123	242.3702	249.3027	339.3779	353.8385	418.66	474.5333	606.5011	627.0054	750.0063	770.7506	832.2404	857.6528	899.1305	912.4144	936.6753	963.3496	1015.2428	1043.3249	1056.1525	1061.983	1118.6135	1146.5745	1185.1657	1192.9645	1225.0398	1253.1526	1285.8552	1309.0731	1332.7985	1377.1715	1386.2463	1411.4824	1427.4239	1462.3897	1469.8679	1475.9732	1482.9313	1494.0755	1499.7604	1510.4462	1809.1584	3011.713	3018.3893	3029.5277	3031.356	3056.1553	3084.3515	3090.3471	3096.2296	3102.2029	3114.4595	3120.8968	3154.7783	3504.6337
CCCC1NC1C(C)=O	CCC[C@H]1N[C@H]1C(=O)C	
InChI=1S/C7H13NO/c1-3-4-6-7(8-6)5(2)9/h6-8H,3-4H2,1-2H3	InChI=1S/C7H13NO/c1-3-4-6-7(8-6)5(2)9/h6-8H,3-4H2,1-2H3/t6-,7+/m1/s1
