21
gdb 61609	3.17143	0.85696	0.7508	4.4645	84.12	-0.2257	0.0304	0.256	1570.3051	0.181324	-383.259834	-383.249624	-383.24868	-383.295743	37.185	
C	 0.4572577868	 1.5352571297	-0.3164933772	-0.392992
C	 0.0328577316	 0.0838449527	-0.0041068659	-0.095096
N	 0.3737343491	-0.9286304083	-1.00189344	-0.297629
C	-0.3760332951	-0.8735651159	-2.2277561731	 0.051247
C	-0.0413040062	 0.0177869309	-3.4164221985	-0.312358
C	 0.1618299418	-1.4825429371	-3.4930616432	-0.027938
C	 1.55502286	-2.0697657551	-3.5803866393	-0.41118
C	 0.5988027886	-0.3313947363	 1.2930233941	 0.272835
N	 1.0638858658	-0.6299238149	 2.3075284005	-0.320559
H	 1.5440258276	 1.6016743877	-0.4251431639	 0.127384
H	-0.0111986001	 1.8647636393	-1.2456972711	 0.138563
H	 0.1531941399	 2.209813833	 0.4890632559	 0.136188
H	-1.0592572494	 0.0601239969	 0.1069914378	 0.131335
H	 1.3736072243	-0.9534998924	-1.1605176593	 0.226601
H	-1.4362094281	-1.0346521358	-2.0437177314	 0.097427
H	-0.8479783686	 0.4765589468	-3.9791441909	 0.110575
H	 0.856942377	 0.6240632857	-3.3480546658	 0.106975
H	-0.5737963699	-2.0281886892	-4.0780165953	 0.092259
H	 2.2984222284	-1.4522983362	-3.0651207726	 0.110073
H	 1.5955416581	-3.0743751691	-3.146415051	 0.130811
H	 1.8750147182	-2.1414858623	-4.6251001997	 0.125479
37.209	80.5499	101.3499	180.8426	202.5802	236.8303	247.4027	285.6473	327.2254	371.6385	451.7685	497.4753	557.5844	589.504	670.0776	742.8708	814.4182	845.9429	887.0608	914.7248	931.1155	976.8284	1026.6389	1058.496	1075.8042	1083.2802	1107.9239	1154.5176	1165.384	1192.7657	1201.2647	1267.0618	1320.5371	1326.0611	1382.9311	1398.7499	1411.6179	1418.2759	1476.4701	1488.1498	1493.0329	1496.0836	1497.1917	1525.9639	2361.4483	3029.7259	3031.3685	3046.6852	3092.5241	3099.0237	3118.7699	3120.9702	3123.878	3141.1068	3142.72	3208.1621	3557.0191
CC(NC1CC1C)C#N	C[C@@H](N[C@H]1C[C@H]1C)C#N	
InChI=1S/C7H12N2/c1-5-3-7(5)9-6(2)4-8/h5-7,9H,3H2,1-2H3	InChI=1S/C7H12N2/c1-5-3-7(5)9-6(2)4-8/h5-7,9H,3H2,1-2H3/t5-,6-,7+/m1/s1
