21
gdb 106979	3.91489	1.10151	0.97791	0.9222	85.06	-0.22	0.0275	0.2475	1301.3498	0.181666	-387.084478	-387.07542	-387.074476	-387.117914	34.644	
C	 0.03202916	 1.2811411965	 0.3532689031	-0.251976
O	-0.0383447242	-0.0161745462	-0.2081538026	-0.287496
C	-1.3159410832	-0.5659786852	-0.1780117909	 0.451042
C	-1.8152827019	-1.1640238876	 1.1123568811	-0.341066
C	-1.4674847768	-2.0622597765	-0.0734197372	-0.223419
C	-2.6130419503	-2.4224736166	-0.9679758038	 0.34403
C	-3.0947474461	-3.831719128	-1.1105019434	-0.496304
C	-3.1122943785	-1.3272002225	-1.5539714618	-0.185827
C	-2.3525351406	-0.0698272459	-1.1930282807	-0.335618
H	 1.0788513249	 1.5911503734	 0.3115338097	 0.124313
H	-0.5733729486	 2.0058956405	-0.2098978659	 0.108736
H	-0.3040286377	 1.2872003106	 1.4000746583	 0.107031
H	-1.1077254474	-1.163131806	 1.9352149874	 0.112119
H	-2.8589135271	-1.059958614	 1.3928057852	 0.10773
H	-0.6035056949	-2.7121658114	 0.0150448752	 0.091808
H	-3.4013900338	-4.2469741159	-0.1421784858	 0.126758
H	-3.9431314507	-3.8993605811	-1.7969404148	 0.121788
H	-2.2982356869	-4.4844726316	-1.48994281	 0.12594
H	-3.9746033337	-1.3163033567	-2.2121050184	 0.084312
H	-3.0059169967	 0.7135910728	-0.7887359632	 0.104348
H	-1.8399523557	 0.3617435614	-2.0640975615	 0.111752
97.796	125.4684	176.771	188.2558	235.3724	271.5232	304.4205	353.7699	408.5842	423.4928	555.482	614.1206	641.275	745.9411	805.9667	822.0067	898.9066	913.8782	957.8263	976.9863	995.3186	1021.1381	1027.3497	1053.8865	1057.2197	1081.9129	1107.1329	1171.1566	1181.8576	1182.7998	1209.6257	1243.0545	1256.1219	1320.4761	1339.	1387.3342	1413.8964	1460.0837	1474.9195	1478.4	1485.236	1489.7179	1490.9259	1507.7715	1705.6895	2988.33	3010.9055	3017.4271	3039.389	3044.2621	3063.45	3110.1824	3116.9198	3119.2021	3171.2325	3187.0634	3213.757
COC12CC1C(C)=CC2	CO[C@]12C[C@H]1C(=CC2)C	
InChI=1S/C8H12O/c1-6-3-4-8(9-2)5-7(6)8/h3,7H,4-5H2,1-2H3	InChI=1S/C8H12O/c1-6-3-4-8(9-2)5-7(6)8/h3,7H,4-5H2,1-2H3/t7-,8+/m0/s1
