23
gdb 83569	2.40109	1.63492	1.54494	0.2001	88.74	-0.2315	0.0301	0.2616	1055.4483	0.209805	-351.190238	-351.182453	-351.181509	-351.221869	32.527	
C	-0.0295796306	 1.5499880816	 0.0133327323	-0.428873
C	 0.0361694534	 0.0205852056	 0.0082018219	 0.035958
C	 0.8770820439	-0.5647293764	-1.1509161905	 0.002513
C	 2.3438321123	-0.3534274162	-0.6750800521	-0.207409
C	 2.2781789769	-0.2551740089	 0.8797282615	-0.208209
C	 0.7988291492	-0.5905398172	 1.2070305014	-0.038486
C	 0.604952825	-2.0938941549	 1.1845885599	-0.079926
C	 0.4912061995	-2.7589623146	 0.0345341993	-0.040153
C	 0.5364348725	-2.0617438485	-1.3036570007	-0.27533
H	 0.9630759473	 2.0108835022	 0.0022382148	 0.115711
H	-0.5689838405	 1.9155285327	-0.8673556445	 0.110384
H	-0.5551206201	 1.9189144102	 0.9010708144	 0.109756
H	-0.987962923	-0.3689492403	-0.0225840119	 0.063964
H	 0.6883909308	-0.0525151835	-2.10004074	 0.053771
H	 2.9867493729	-1.1746231619	-1.0048707512	 0.095732
H	 2.7630268011	 0.5615943175	-1.103162784	 0.095207
H	 2.969632562	-0.9445546168	 1.3707362527	 0.094664
H	 2.5320744493	 0.7526423473	 1.2237073352	 0.091744
H	 0.4837205591	-0.1754782206	 2.1693601308	 0.053397
H	 0.5935328491	-2.6235921546	 2.1338196545	 0.079461
H	 0.3580611217	-3.8383651131	 0.0320117658	 0.080254
H	-0.4299575243	-2.1818274527	-1.8163588395	 0.098292
H	 1.2746584625	-2.5499298066	-1.9555322702	 0.097575
152.9896	206.3377	223.0153	277.5873	292.8792	356.7275	458.2208	460.8845	511.6998	663.0783	703.3099	746.3789	772.1503	789.1623	817.6647	880.7813	899.4149	926.4189	943.7895	957.7569	980.9078	993.7965	1005.169	1047.6332	1069.2975	1076.9751	1105.1926	1123.5961	1162.3746	1177.317	1204.8254	1213.6969	1254.1813	1258.7229	1296.926	1314.9084	1325.6341	1338.5602	1347.8464	1369.6159	1397.1206	1409.7806	1413.5073	1476.5334	1486.1705	1498.3008	1505.1824	1513.0057	1711.6839	2991.3671	3018.8899	3029.7977	3034.5654	3042.7559	3047.131	3055.4602	3064.1917	3082.4694	3091.289	3100.7353	3107.0748	3142.2752	3166.9856
CC1C2CCC1C=CC2	C[C@H]1[C@H]2CC[C@@H]1C=CC2	
InChI=1S/C9H14/c1-7-8-3-2-4-9(7)6-5-8/h2-3,7-9H,4-6H2,1H3	InChI=1S/C9H14/c1-7-8-3-2-4-9(7)6-5-8/h2-3,7-9H,4-6H2,1H3/t7-,8+,9-/m1/s1
