16
gdb 18303	3.11431	2.23698	1.92733	1.998	59.74	-0.219	0.0598	0.2788	766.21	0.131697	-420.831765	-420.82498	-420.824036	-420.862545	26.363	
O	 0.2059965813	 1.3377244866	-0.0628088711	-0.425415
C	 0.0393487966	-0.0443528522	-0.0606623673	 0.057801
C	-0.4784491078	-0.673846836	 1.2259856808	-0.039402
O	-0.7655884335	 0.2643351257	 2.2306278699	-0.265904
C	-2.1661658832	 0.5322924132	 2.3331171873	-0.092505
C	-2.7033585991	 1.0545118426	 1.0110143292	-0.075599
O	-2.5270243694	 0.109562293	-0.0397410108	-0.259036
C	-1.3541545918	-0.6441825096	-0.0071063569	 0.056338
H	 0.231642179	 1.6064128775	 0.8667978695	 0.290342
H	 0.7942286848	-0.5800416026	-0.6323413996	 0.096131
H	-0.0711155053	-1.6066087812	 1.609381263	 0.09783
H	-2.7006763354	-0.3805913782	 2.6314740874	 0.107978
H	-2.2803470407	 1.2832558661	 3.1194295429	 0.116511
H	-3.7810177905	 1.2330247871	 1.0833705931	 0.111792
H	-2.2067377828	 1.9990955013	 0.7555199483	 0.114213
H	-1.5011870323	-1.5817843133	-0.5347642259	 0.108924
144.1019	161.6959	248.9821	344.1863	404.4325	454.486	511.5407	584.7446	656.2778	730.2998	748.5365	765.873	853.3847	917.8485	929.9179	1033.9841	1065.7263	1079.3724	1092.3017	1110.974	1133.0741	1166.727	1183.9041	1253.575	1267.7497	1308.5051	1324.7504	1349.7773	1378.4198	1401.4631	1412.1018	1440.43	1489.4086	1501.4358	3010.3353	3028.9756	3084.5647	3101.8008	3120.3766	3128.2801	3155.6705	3728.2172
OC1C2OCCOC12	O[C@H]1[C@H]2OCCO[C@@H]12	
InChI=1S/C5H8O3/c6-3-4-5(3)8-2-1-7-4/h3-6H,1-2H2	InChI=1S/C5H8O3/c6-3-4-5(3)8-2-1-7-4/h3-6H,1-2H2/t3-,4+,5-
