21
gdb 72321	3.05325	1.7001	1.34313	0.5879	88.06	-0.2191	0.0002	0.2193	1033.7731	0.184864	-349.926413	-349.919	-349.918055	-349.957575	31.195	
C	-0.0739925356	 1.5570326372	-0.0565561797	-0.484167
C	-0.0869712802	 0.0450159141	-0.1006069611	 0.335646
C	 0.7481454239	-0.6357707541	-1.1957412242	-0.315995
C	 0.1821925819	-2.0414840332	-1.199769435	-0.117381
C	-0.9165235412	-2.1204177211	-0.4345655709	 0.121675
C	-1.0062991844	-3.0527746747	 0.748728591	-0.260965
C	-0.1824520156	-2.1206042815	 1.7220220632	-0.22631
C	-0.4733151538	-0.6682135672	 1.2473212132	-0.078594
C	-1.3523903877	-0.7443544025	 0.0331399613	-0.153848
H	 0.9171484261	 1.9391351867	 0.2150448709	 0.116037
H	-0.3319218948	 1.9785825691	-1.0355329492	 0.114547
H	-0.7911840177	 1.947877536	 0.6717083936	 0.114108
H	 0.6570790921	-0.0786420719	-2.1408470966	 0.099295
H	 1.8226387029	-0.6758134443	-0.9684264736	 0.103146
H	 0.7897984791	-2.8988959246	-1.4738440259	 0.086696
H	-2.0226713258	-3.2059953717	 1.1258002976	 0.098233
H	-0.5334674102	-4.0252501791	 0.593875774	 0.09902
H	-0.5005960078	-2.2306317258	 2.7651667867	 0.094981
H	 0.8780386488	-2.3873229254	 1.6716745794	 0.102027
H	-0.6934020562	 0.049244358	 2.0330840395	 0.076599
H	-2.3684244739	-0.373588584	-0.0567043742	 0.07525
203.0811	213.4725	247.0826	278.7329	322.2462	383.7719	441.177	549.3465	617.0802	650.4409	662.1085	768.1398	812.6614	841.6016	843.825	868.7948	892.8588	909.5601	927.0772	949.4307	982.0936	1010.4386	1038.9174	1062.5829	1089.4955	1092.8635	1119.6821	1144.4891	1172.1528	1196.9069	1203.8551	1245.6624	1273.4902	1303.6173	1307.5289	1311.0682	1332.3326	1398.7126	1417.6479	1475.4424	1484.0328	1492.6092	1497.9767	1500.0149	1659.4685	2985.6905	3021.4773	3023.9971	3033.4725	3049.0036	3077.9233	3077.984	3098.7731	3112.8573	3141.8832	3155.7008	3171.5778
CC12CC=C3CCC1C23	C[C@@]12C[CH][C]3CC[C@@H]1[C@@H]23	
InChI=1S/C9H12/c1-9-5-4-6-2-3-7(9)8(6)9/h4,7-8H,2-3,5H2,1H3	InChI=1S/C9H12/c1-9-5-4-6-2-3-7(9)8(6)9/h4,7-8H,2-3,5H2,1H3/t7-,8+,9-/m1/s1
