20
gdb 10915	3.05284	1.88544	1.47412	1.4262	74.77	-0.2428	0.071	0.3137	948.9713	0.176242	-348.982479	-348.973916	-348.972971	-349.014784	32.87	
C	-0.1373449545	 1.5918601762	 0.0534099347	-0.414192
C	 0.0343244685	 0.0782868818	 0.0293771218	-0.079854
C	 1.1324504611	-0.5473746231	-0.9179936373	 0.095877
O	 2.0173536535	 0.3294300227	-1.588709638	-0.427458
C	 1.7637272793	-1.238777984	 0.2789021795	-0.104691
C	 2.1505403466	-0.2178248353	 1.3163932594	-0.33045
C	 0.708866937	-0.6314173567	 1.2188625649	 0.360202
C	-0.0401003868	-1.2718970894	 2.3528256705	-0.498166
H	 0.8160961138	 2.1064418953	 0.1959583528	 0.127194
H	-0.5698569066	 1.9539406172	-0.8870638704	 0.101623
H	-0.812591274	 1.8964261968	 0.8603970784	 0.113477
H	-0.9313497877	-0.396122697	-0.181042666	 0.062117
H	 0.6879897681	-1.2623242657	-1.6228009758	 0.062859
H	 1.5345490916	 0.7506513701	-2.3071131841	 0.280973
H	 2.1833406869	-2.2379248628	 0.273284224	 0.079077
H	 2.6824945172	-0.6222597172	 2.1722932337	 0.104309
H	 2.4905122027	 0.7660409075	 1.0098399766	 0.11965
H	-0.4780393812	-0.51835834	 3.0190403922	 0.118572
H	-0.8584895788	-1.9025974755	 1.9856079039	 0.112528
H	 0.6200499034	-1.9003467808	 2.9600779091	 0.116353
121.8194	182.085	200.8904	218.1074	239.5274	268.7973	288.2958	345.9209	444.5926	531.5515	552.3371	665.0237	695.4735	777.6992	816.5262	892.1842	914.2245	969.2842	978.1827	1000.3664	1029.7211	1064.3219	1069.1589	1096.8651	1106.4713	1137.5318	1152.7571	1207.5202	1236.0448	1261.3868	1282.7605	1326.8619	1362.5727	1399.139	1410.7389	1423.7131	1429.2422	1486.8679	1494.1452	1495.6511	1499.0865	1507.6454	3004.5345	3016.8647	3027.3611	3036.8388	3073.4091	3085.4665	3091.4	3118.355	3125.8283	3177.2518	3206.1793	3814.9133
CC1C(O)C2CC12C	C[C@H]1[C@@H](O)[C@H]2C[C@@]12C	
InChI=1S/C7H12O/c1-4-6(8)5-3-7(4,5)2/h4-6,8H,3H2,1-2H3	InChI=1S/C7H12O/c1-4-6(8)5-3-7(4,5)2/h4-6,8H,3H2,1-2H3/t4-,5+,6+,7-/m0/s1
