19
gdb 105007	2.44422	1.26806	1.03599	1.7031	76.81	-0.2562	0.0259	0.2821	1238.0827	0.155625	-422.964444	-422.954339	-422.953395	-422.999756	36.924	
C	-0.7862484127	 1.1901903561	-0.2597852237	-0.388501
C	 0.0036230672	-0.0951899657	 0.0191563268	-0.251519
C	 0.6138129184	-0.7064765998	-1.2299789371	 0.393231
C	 0.5094247277	-2.1531548523	-1.4770221973	-0.242635
O	-0.3239013302	-1.2212606992	-2.1766184706	-0.26945
C	 1.7860878334	 0.0863470758	-1.8344506678	-0.149333
O	 2.8283045074	 0.2385719538	-0.871808197	-0.406038
C	 2.2843056194	-0.4775180969	-3.0902868308	 0.316341
C	 2.7490420222	-0.9467258689	-4.0945167717	-0.442843
H	-0.1421063649	 2.0013381886	-0.6139605868	 0.12242
H	-1.5567463673	 1.0122577663	-1.0157499924	 0.134882
H	-1.2779163323	 1.5420607773	 0.6517097755	 0.115996
H	 0.8065047811	 0.1001925732	 0.7371967431	 0.116529
H	-0.6634645714	-0.8374807765	 0.4694793957	 0.09882
H	 1.2487302651	-2.6578767337	-2.0953235266	 0.122195
H	-0.0028178324	-2.7775479381	-0.7465446878	 0.112956
H	 1.4379720649	 1.1077597576	-2.0277266575	 0.127778
H	 3.2648662951	-0.6166570722	-0.7848982764	 0.286726
H	 3.1464882993	-1.3495518754	-4.9935449574	 0.202447
42.145	80.4573	141.5756	184.5192	209.9759	242.0432	254.2926	309.6895	351.5492	362.0622	423.7363	492.777	558.735	604.8547	637.782	668.5818	733.9041	780.1146	865.8813	887.0863	947.5056	998.3798	1010.7318	1052.5759	1079.5769	1103.2527	1133.8417	1172.1206	1229.8168	1258.0356	1287.8661	1341.0382	1353.9136	1411.0907	1414.2959	1421.7146	1473.8832	1502.2455	1507.0636	1521.0716	2234.5059	3040.3926	3047.325	3049.24	3087.3416	3089.4257	3108.9224	3119.6969	3180.2119	3501.2698	3801.371
CCC1(CO1)C(O)C#C	CC[C@]1(CO1)[C@@H](O)C#C	
InChI=1S/C7H10O2/c1-3-6(8)7(4-2)5-9-7/h1,6,8H,4-5H2,2H3	InChI=1S/C7H10O2/c1-3-6(8)7(4-2)5-9-7/h1,6,8H,4-5H2,2H3/t6-,7-/m0/s1
