14
gdb 62384	2.73956	1.86088	1.38551	1.226	65.83	-0.2607	-0.0254	0.2354	904.7941	0.10015	-436.632387	-436.62506	-436.624116	-436.663917	28.357	
O	-0.0064254414	 1.3733485072	-0.0394765922	-0.4606
C	 0.0323514833	-0.0181815825	 0.0055706212	 0.342091
C	 1.008621998	-0.546474878	-0.9572375201	 0.192727
N	 1.8213281059	-0.8788949284	-1.709348285	-0.333669
C	-0.0400400277	-0.6733959437	 1.4610246131	-0.042049
O	-1.4307968788	-0.2443877547	 1.4841458509	-0.276373
C	-1.4175931463	-0.6348609374	 0.0810232653	-0.016725
C	-1.0991976772	-2.1301700095	 0.1564682749	-0.088141
C	-0.1546717441	-2.1543069988	 1.1041174149	-0.086755
H	 0.8878959896	 1.712628437	-0.1555705687	 0.30201
H	 0.5689151894	-0.3228360681	 2.291816089	 0.101306
H	-2.2369550085	-0.2451547992	-0.5188444746	 0.10752
H	-1.5181754406	-2.9186381858	-0.4496365878	 0.129644
H	 0.4320219885	-2.9699123881	 1.4986099392	 0.129013
142.7403	156.6412	226.4347	285.0142	329.86	451.6735	458.225	514.167	595.1028	604.932	672.7123	734.255	795.7667	860.5252	877.1993	891.0551	923.4411	926.9148	984.0995	992.7117	1069.6051	1127.5148	1148.6614	1168.3873	1226.1829	1239.6107	1295.0262	1307.4813	1364.2579	1604.0235	2347.6185	3152.7253	3160.0218	3243.3011	3268.3492	3814.5531
OC1(C#N)C2OC1C=C2	O[C@@]1(C#N)[C@H]2O[C@@H]1C=C2	
InChI=1S/C6H5NO2/c7-3-6(8)4-1-2-5(6)9-4/h1-2,4-5,8H	InChI=1S/C6H5NO2/c7-3-6(8)4-1-2-5(6)9-4/h1-2,4-5,8H/t4-,5+,6-
