19
gdb 113335	2.61512	1.12281	0.91381	4.2745	78.36	-0.2273	0.0148	0.2421	1346.9712	0.157504	-419.176685	-419.166689	-419.165744	-419.21181	35.582	
C	 0.3268989547	 1.1052585265	 0.4400952459	-0.311482
N	-0.3552332174	 0.2085827495	-0.4846116872	-0.290175
C	 0.5014375365	-0.399406999	-1.4501820932	-0.020804
C	 1.5042345353	-1.4915804939	-1.1115629532	-0.358019
C	 0.213918782	-1.8264609595	-1.8552538105	 0.244135
O	-0.8105109124	-2.4474679993	-1.148118329	-0.279463
C	-0.6363189746	-3.8498897113	-0.9740684494	-0.262209
C	 0.2930404392	-2.1892766896	-3.2561225477	 0.258586
N	 0.3579354199	-2.4983171447	-4.3688795698	-0.350272
H	 1.1492703422	 0.6328797445	 1.0043175349	 0.098035
H	 0.7492957844	 1.9515683314	-0.1129503458	 0.126331
H	-0.3988499237	 1.5043184592	 1.1537558264	 0.124747
H	-0.8802045832	-0.5058227495	 0.0054798836	 0.236165
H	 0.7911541845	 0.2640665078	-2.261756879	 0.121839
H	 2.4424141193	-1.5455135157	-1.6520318362	 0.134939
H	 1.5332408703	-1.837686015	-0.0837136342	 0.128546
H	-1.4908359906	-4.1967775197	-0.3909382553	 0.139277
H	-0.6208175176	-4.3696894328	-1.939823604	 0.14151
H	 0.2927160613	-4.0718140789	-0.4330030663	 0.118314
72.1477	107.2445	131.867	155.2752	166.8086	202.9312	229.4451	272.9324	335.1877	376.4405	454.766	504.4506	577.4867	651.8886	677.4678	739.8528	832.1537	912.2223	937.5201	980.718	1026.0778	1041.6472	1087.4849	1098.5536	1156.078	1167.3173	1184.4482	1214.7485	1229.1224	1275.6412	1291.2576	1378.6845	1456.4379	1459.6176	1478.7586	1485.7314	1488.487	1505.327	1507.7589	1523.8665	2347.3212	2958.0798	3009.8415	3061.0297	3073.5047	3111.4265	3135.8865	3136.3298	3138.95	3232.6227	3555.6309
CNC1CC1(OC)C#N	CN[C@H]1C[C@]1(OC)C#N	
InChI=1S/C6H10N2O/c1-8-5-3-6(5,4-7)9-2/h5,8H,3H2,1-2H3	InChI=1S/C6H10N2O/c1-8-5-3-6(5,4-7)9-2/h5,8H,3H2,1-2H3/t5-,6-/m0/s1
