22
gdb 6805	6.22416	0.68281	0.64285	0.5302	76.53	-0.2464	0.0721	0.3186	1811.6047	0.197373	-387.339771	-387.329188	-387.328244	-387.376166	36.907	
C	-0.077078637	 1.5233703022	 0.0058806823	-0.384025
C	-0.0185769884	 0.0052422417	-0.02719409	-0.026526
O	-1.3360869565	-0.4987615104	 0.0293348148	-0.24629
C	-1.3946142378	-1.9089403677	-0.0029480553	-0.049469
C	-2.8562764443	-2.3339936426	 0.045078344	-0.210292
C	-3.0394658136	-3.854663707	-0.0148689896	 0.135515
C	-4.5072960229	-4.2658098195	 0.1013343413	-0.401226
O	-2.439723656	-4.4099265132	-1.1862339446	-0.429486
H	 0.9312914588	 1.9461526744	-0.0343594361	 0.112744
H	-0.6479160622	 1.9039180035	-0.846015518	 0.124422
H	-0.5623409614	 1.8681629306	 0.923478231	 0.124864
H	 0.4839470618	-0.3430849176	-0.9460371892	 0.08328
H	 0.5729004011	-0.3769420974	 0.8228389254	 0.082659
H	-0.9179721295	-2.300723902	-0.9144823187	 0.096244
H	-0.8455289006	-2.3363723872	 0.8549651514	 0.079838
H	-3.3138562361	-1.943224629	 0.9616039444	 0.103728
H	-3.3904566008	-1.8668756968	-0.7940553438	 0.092708
H	-2.4779408063	-4.3112886404	 0.8106259719	 0.08866
H	-5.1003735463	-3.8190529484	-0.7067461765	 0.106572
H	-4.6023685538	-5.3529067857	 0.0343785101	 0.123385
H	-4.9392004752	-3.9348528461	 1.0512749499	 0.116998
H	-2.9283099729	-4.0752489714	-1.9469559746	 0.275696
44.5176	65.0784	101.2203	133.4456	139.0418	229.4536	246.4693	246.9279	291.5202	307.7004	405.6297	439.7345	493.7853	523.7599	799.4757	820.9734	847.5361	902.9238	942.835	976.9524	1030.0458	1059.5542	1088.8909	1112.3389	1148.4173	1162.1626	1179.7858	1186.4457	1225.0894	1290.1363	1295.1316	1297.8974	1334.6025	1374.1285	1392.6622	1403.1392	1408.0276	1421.8845	1452.347	1482.0051	1483.2794	1493.647	1496.1723	1499.5719	1519.2252	1540.256	2942.9641	2954.3888	2972.3473	3001.9204	3015.1006	3023.0356	3032.7181	3043.9578	3068.7986	3095.0872	3118.2299	3119.3483	3119.9456	3792.9815
CCOCCC(C)O	CCOCC[C@@H](C)O	
InChI=1S/C6H14O2/c1-3-8-5-4-6(2)7/h6-7H,3-5H2,1-2H3	InChI=1S/C6H14O2/c1-3-8-5-4-6(2)7/h6-7H,3-5H2,1-2H3/t6-/m1/s1
