17
gdb 99196	6.01156	0.55147	0.50994	3.4883	75.71	-0.2566	0.0156	0.2722	2099.4376	0.131817	-458.956139	-458.945189	-458.944245	-458.995572	35.388	
C	-0.1246896672	 1.4318729728	 0.0117261774	-0.498819
C	-0.0836475385	-0.0225652768	 0.0028741357	 0.133285
C	-0.0507866625	-1.22514074	-0.0044074206	 0.011619
C	 0.031523226	-2.6740117678	-0.0137228653	-0.232529
O	-1.3074725005	-3.2220048528	-0.0034563298	-0.247218
C	-1.3648812497	-4.5706799263	-0.009829455	 0.449629
O	-0.4072036668	-5.2938272772	-0.0229687301	-0.331563
C	-2.8221049116	-5.0044556655	 0.002234895	-0.188079
O	-2.8750981654	-6.4071452564	-0.0052079872	-0.393318
H	 0.8871675772	 1.8515531776	 0.0062446838	 0.154073
H	-0.6500453347	 1.8209308081	-0.8670887505	 0.152573
H	-0.6361114707	 1.8105073961	 0.9032218652	 0.152583
H	 0.5572924943	-3.0430375371	-0.901145278	 0.149375
H	 0.5750401852	-3.0533818256	 0.8585082004	 0.149394
H	-3.2918173178	-4.5589624118	 0.8932696208	 0.121894
H	-3.3094580288	-4.5489765577	-0.874194504	 0.121876
H	-3.8006440282	-6.6672200396	 0.0067238121	 0.295226
16.6797	26.905	65.254	70.0059	142.5821	184.8585	203.577	212.3422	295.4048	302.4624	378.8765	408.3596	538.0608	593.1815	676.4427	786.5611	950.8345	981.8701	1010.5939	1039.6626	1052.3175	1054.0085	1132.072	1183.1344	1198.4066	1246.2841	1248.6161	1259.7108	1396.5992	1414.3169	1460.5095	1475.3216	1478.5623	1489.9062	1497.9108	1846.9821	2382.2929	2980.5786	3006.9532	3030.3308	3042.0201	3075.1817	3093.0231	3093.0367	3838.4017
CC#CCOC(=O)CO	CC#CCOC(=O)CO	
InChI=1S/C6H8O3/c1-2-3-4-9-6(8)5-7/h7H,4-5H2,1H3	InChI=1S/C6H8O3/c1-2-3-4-9-6(8)5-7/h7H,4-5H2,1H3
