17
gdb 31452	4.62445	0.91304	0.81312	4.0794	86.11	-0.2099	0.0091	0.219	1424.2452	0.136138	-380.890489	-380.881692	-380.880748	-380.924734	32.491	
C	 0.1698830947	 1.387994877	-0.4126025325	-0.371802
C	-0.0250244493	 0.0130216627	 0.2518330322	-0.302223
C	-1.4373861787	-0.4748242722	 0.1885953243	 0.338973
N	-2.3493023345	-0.3170927236	 1.119271417	-0.345222
C	-3.5118882209	-0.882580493	 0.6160260317	 0.138665
C	-3.2802527769	-1.3870413177	-0.6440851192	-0.197779
N	-1.9595115218	-1.1204781109	-0.9033617256	-0.270945
C	-4.7287632123	-0.913442139	 1.3388312625	 0.2349
C	-5.7690314059	-0.9444546141	 1.944148052	-0.422705
H	 1.2102160069	 1.7151419544	-0.3249777466	 0.11844
H	-0.0855533158	 1.3581060613	-1.4770195921	 0.110998
H	-0.468516846	 2.1364892753	 0.0644454095	 0.14123
H	 0.6433161632	-0.7223858844	-0.2132893369	 0.101507
H	 0.2486452616	 0.0714451807	 1.308385445	 0.139199
H	-3.9184777474	-1.8990848394	-1.3438187151	 0.137109
H	-1.463105616	-1.3661485639	-1.7437779702	 0.266367
H	-6.6824587609	-0.9683937431	 2.4841904939	 0.183287
32.4478	115.5376	142.8218	189.0368	221.382	347.1791	372.5611	467.1551	536.9571	549.0309	552.2008	562.6799	657.773	684.9717	696.4368	749.8245	762.2206	787.4117	961.0991	996.9219	1008.1633	1076.9066	1093.0236	1114.6741	1223.6816	1275.8571	1285.4508	1343.4058	1379.8258	1411.1766	1445.8267	1477.9797	1497.8961	1505.5467	1556.6933	1587.5483	2236.6417	3032.7981	3038.5661	3094.9247	3112.7847	3124.2958	3282.6613	3506.3405	3659.5688
CCC1=NC(=CN1)C#C	CCc1nc(c[nH]1)C#C	
InChI=1S/C7H8N2/c1-3-6-5-8-7(4-2)9-6/h1,5H,4H2,2H3,(H,8,9)	InChI=1S/C7H8N2/c1-3-6-5-8-7(4-2)9-6/h1,5H,4H2,2H3,(H,8,9)
