15
gdb 28826	3.20077	1.40935	1.10626	4.898	76.51	-0.2505	-0.084	0.1666	1083.9494	0.113083	-416.846038	-416.838301	-416.837357	-416.878454	28.55	
C	-0.4789881632	 1.3656761055	 0.1233225287	-0.47104
C	-0.0221578082	-0.059359324	-0.0492203076	 0.307681
N	-0.2334898154	-0.618968649	-1.1980070399	-0.282926
C	 0.163429868	-1.905589826	-1.4974712919	 0.074085
N	 0.1906338512	-2.9661256996	-0.7788084993	-0.236346
C	-0.0739138825	-2.9790729424	 0.5895319938	 0.34141
O	-0.7876664179	-3.7985991	 1.1194113214	-0.319004
C	 0.6845522604	-1.9731723466	 1.3831484093	-0.15811
C	 0.6619938764	-0.6587789022	 1.0952637019	-0.090948
H	-1.14407434	 1.4548566625	 0.9897115643	 0.147856
H	 0.3794888987	 2.0207822078	 0.3144618811	 0.143859
H	-0.9962515251	 1.7039636532	-0.774058639	 0.152512
H	 0.431270353	-2.0207499298	-2.5492473706	 0.133238
H	 1.1550293326	-2.3319853857	 2.2945797878	 0.140892
H	 1.1045696222	 0.0402661062	 1.8012120802	 0.116841
89.0319	134.7927	193.3043	266.2573	315.3832	345.098	376.924	464.9628	537.4987	628.8387	663.9476	741.9181	777.8982	817.1673	861.0288	916.0929	974.8538	1001.2667	1010.9286	1053.6994	1115.715	1215.7636	1231.0372	1247.2752	1399.3061	1420.7581	1438.8892	1467.7073	1477.4688	1580.7334	1666.0128	1676.3645	1793.1596	3034.195	3088.8643	3120.6438	3153.0265	3159.9656	3179.9312
CC1=NC=NC(=O)C=C1	Cc1ncnc(=O)cc1	
InChI=1S/C6H6N2O/c1-5-2-3-6(9)8-4-7-5/h2-4H,1H3	InChI=1S/C6H6N2O/c1-5-2-3-6(9)8-4-7-5/h2-4H,1H3
