21
gdb 33230	5.26716	0.64195	0.61452	0.8701	85.19	-0.2178	0.0243	0.2421	1874.1052	0.182894	-387.128486	-387.119162	-387.118218	-387.163991	33.951	
C	-0.1819110454	 1.5731851103	 0.0145698121	-0.381864
C	 0.0238639183	 0.0566020126	-0.0278933034	-0.16053
C	 0.6923630739	-0.4951184183	 1.2351164209	-0.148261
C	 0.8972044817	-2.0206344148	 1.1954741288	-0.334617
C	 1.5410791314	-2.5700668632	 2.4338653012	 0.25428
C	 2.7850514119	-3.1084975941	 2.5497504315	-0.103768
O	 3.040993167	-3.4879668111	 3.832132409	-0.142906
C	 1.9322122904	-3.184005968	 4.5551968463	 0.005651
C	 0.9850525083	-2.6229724668	 3.7619853191	-0.27856
H	 0.7728329445	 2.0992315678	 0.1251581269	 0.114468
H	-0.6587949667	 1.938206714	-0.9004935802	 0.111094
H	-0.8168286612	 1.8631284837	 0.8592434555	 0.113549
H	-0.9442410346	-0.4414876331	-0.172450649	 0.093644
H	 0.6320104823	-0.2066036585	-0.9037559397	 0.093926
H	 1.6649709985	-0.0082327367	 1.382817625	 0.097829
H	 0.0876103205	-0.2333038997	 2.1134856041	 0.09565
H	-0.0761574117	-2.5050182552	 1.038980853	 0.104238
H	 1.5098112927	-2.2800930422	 0.323466802	 0.099312
H	 3.5769568396	-3.2895199336	 1.8411374478	 0.129218
H	 1.9756598379	-3.4294101988	 5.6035927709	 0.132392
H	 0.0063180206	-2.2886274444	 4.0709010582	 0.105257
40.9244	75.1901	89.5478	122.0977	238.7671	244.003	316.0772	321.3004	433.2083	622.096	645.6277	714.6781	732.3192	736.3686	782.8369	793.9177	831.2197	892.0194	908.3075	930.9464	982.2583	1015.7103	1058.2656	1062.7555	1096.4405	1101.8418	1123.3413	1203.3043	1234.4566	1264.9377	1277.275	1288.6154	1315.2814	1329.2845	1365.4842	1395.9376	1411.1429	1413.5241	1480.75	1485.6509	1499.0719	1499.728	1512.1399	1537.1	1636.1549	3009.9801	3010.4417	3021.8685	3029.8095	3033.8813	3047.4822	3069.5068	3096.1153	3101.0865	3246.8208	3269.8457	3282.5271
CCCCC1=COC=C1	CCCCc1cocc1	
InChI=1S/C8H12O/c1-2-3-4-8-5-6-9-7-8/h5-7H,2-4H2,1H3	InChI=1S/C8H12O/c1-2-3-4-8-5-6-9-7-8/h5-7H,2-4H2,1H3
