19
gdb 69540	3.16354	1.52507	1.39598	0.2241	74.09	-0.2331	0.0793	0.3124	1022.4252	0.158283	-422.980216	-422.972292	-422.971348	-423.012028	31.881	
C	-0.0320071373	 1.4736420225	 0.0370558643	-0.50048
C	 0.0749915145	-0.0185765498	-0.0074481587	 0.431348
O	-0.8048142778	-0.7966157268	 0.8320087236	-0.292835
C	 0.6193324292	-0.9238228012	 1.0005868751	-0.080396
C	 1.3018644046	-1.9818340432	 0.0856745286	 0.379207
C	 2.2081125799	-3.0146649297	 0.6903671262	-0.509021
C	 0.2215257999	-2.2586586978	-0.9909452957	-0.268955
C	 0.5599766163	-0.7834967066	-1.2759101369	-0.013499
O	 1.9498281037	-1.0718436979	-0.8929496033	-0.334229
H	 0.8835055249	 1.9272985857	-0.3562549752	 0.137551
H	-0.8729651555	 1.8262245768	-0.5704199252	 0.127799
H	-0.1840128234	 1.8194924384	 1.0625233193	 0.132355
H	 1.0280177547	-0.6339255446	 1.9636157733	 0.099987
H	 1.6369660073	-3.6806742952	 1.3452263372	 0.130594
H	 2.6871143468	-3.6148545942	-0.0874203451	 0.130916
H	 2.9917327378	-2.5378134894	 1.2889516107	 0.129796
H	 0.6159986772	-2.9083911791	-1.7722818163	 0.104931
H	-0.7857754808	-2.5323631129	-0.6842192701	 0.119498
H	 0.4600730679	-0.3044969252	-2.2495040019	 0.075433
165.3109	192.6988	201.9336	238.6162	293.6103	332.6434	433.1926	469.1253	542.9445	576.5744	602.3738	634.8569	733.2782	797.312	810.4642	869.5925	884.0774	898.517	933.8101	970.2075	999.6477	1011.9711	1021.7078	1088.1756	1099.9853	1121.2263	1192.1312	1217.772	1227.221	1234.6341	1262.6398	1281.1529	1344.5807	1404.2256	1415.2161	1456.873	1476.0857	1479.1784	1487.2433	1492.4171	1497.0593	3035.2495	3037.8587	3097.2174	3098.6092	3105.5787	3121.5012	3123.7472	3127.7176	3166.3079	3172.1459
CC12OC1C1(C)CC2O1	C[C@]12O[C@H]1[C@@]1(C)C[C@@H]2O1	
InChI=1S/C7H10O2/c1-6-3-4(8-6)7(2)5(6)9-7/h4-5H,3H2,1-2H3	InChI=1S/C7H10O2/c1-6-3-4(8-6)7(2)5(6)9-7/h4-5H,3H2,1-2H3/t4-,5-,6+,7+/m0/s1
