16
gdb 9711	3.29914	1.7976	1.63025	1.5736	72.19	-0.2449	0.0065	0.2514	876.2298	0.128607	-346.570768	-346.562881	-346.561937	-346.602804	29.693	
C	 0.0358282968	 1.4925878056	-0.0657670819	-0.411109
C	-0.0473762533	-0.0387236494	 0.0201370657	 0.157414
O	 0.6579564374	-0.5944082079	-1.1047676647	-0.286893
C	 1.5827989201	-1.5890456009	-0.6734421214	-0.129065
C	 1.5937986949	-1.4889731682	 0.8255330539	-0.095787
C	 0.6761702149	-0.6190086505	 1.2233875422	-0.10705
C	-1.4553868955	-0.475828931	 0.0031651346	 0.358553
C	-2.6057728857	-0.8245506032	 0.0040706361	-0.507418
H	 1.0835437105	 1.8020257381	-0.0313841062	 0.120148
H	-0.407501845	 1.8346499961	-1.0040591146	 0.136155
H	-0.5054647229	 1.9554115138	 0.7642538524	 0.121909
H	 1.2668332479	-2.5882009865	-1.014863547	 0.110309
H	 2.563505699	-1.3845093597	-1.1259776735	 0.111274
H	 2.2546394525	-2.0710429132	 1.4552803337	 0.11086
H	 0.4167972871	-0.3423647927	 2.2363968007	 0.113245
H	-3.6200445286	-1.1395179803	-0.0038520299	 0.197455
78.3373	158.2512	185.958	232.5476	276.3304	357.5461	453.0156	515.721	533.2319	617.1052	623.5837	660.2987	741.2868	775.2695	821.8796	892.7166	924.3706	956.4064	962.2904	1042.9254	1045.9567	1107.063	1144.5004	1170.2369	1196.3239	1215.2989	1342.8009	1376.7662	1397.4545	1480.1909	1486.2146	1517.0318	1692.6698	2228.3201	2973.8435	3013.7716	3045.8532	3126.0796	3132.9861	3211.1257	3238.3145	3500.1848
CC1(OCC=C1)C#C	C[C@]1(OCC=C1)C#C	
InChI=1S/C7H8O/c1-3-7(2)5-4-6-8-7/h1,4-5H,6H2,2H3	InChI=1S/C7H8O/c1-3-7(2)5-4-6-8-7/h1,4-5H,6H2,2H3/t7-/m0/s1
