23
gdb 60094	3.51664	0.99756	0.92007	1.7845	86.51	-0.2324	0.0844	0.3169	1407.5668	0.204562	-388.236058	-388.22672	-388.225776	-388.270447	36.112	
C	 1.1171127481	-0.3411477007	-0.8182494748	-0.387105
C	 0.0421122227	-0.0012914238	 0.2242226588	 0.040797
C	-0.085193066	 1.5173495667	 0.4048822788	-0.391301
C	-1.3271740231	-0.6140206687	-0.1312808393	-0.346784
C	-1.4104818288	-2.1119007557	-0.0564607769	 0.443436
C	-0.9351584591	-3.0936548552	 1.0558721778	-0.25631
C	-1.3768248616	-3.9063455887	-0.1797941939	 0.049873
C	-2.6407549281	-3.0292976894	-0.3064398255	-0.262124
O	-0.6556298792	-2.9481061111	-1.0449198679	-0.337808
H	 2.0886881924	 0.0674992747	-0.5204279733	 0.101763
H	 1.2156832434	-1.4200251515	-0.9534928251	 0.14296
H	 0.8595771842	 0.0930765333	-1.792076127	 0.107498
H	 0.3527495058	-0.4288582517	 1.1881598101	 0.073084
H	-0.4170402457	 1.9951445388	-0.524857492	 0.112321
H	-0.8084658256	 1.7726998512	 1.1870131407	 0.105924
H	 0.8770246211	 1.9622431789	 0.6788397835	 0.109933
H	-2.0904032581	-0.2205310105	 0.5537193865	 0.099551
H	-1.6263843876	-0.301332376	-1.1409550133	 0.107221
H	 0.1374753131	-3.0956589993	 1.253345479	 0.106637
H	-1.537155961	-3.1663332196	 1.9657997894	 0.091912
H	-1.2447588377	-4.9667126185	-0.3927996033	 0.093273
H	-3.3994408673	-3.09536624	 0.4781278282	 0.09108
H	-3.0648327718	-2.9690071533	-1.3097835105	 0.104169
45.3464	96.6224	144.7764	230.1263	258.5738	283.6411	315.4549	323.2107	419.3731	426.8411	516.771	597.5825	685.8629	708.2837	799.4351	822.9264	857.7548	901.8254	929.8899	940.5181	946.7818	957.2508	972.0655	986.9314	1003.1691	1061.8844	1079.7607	1103.3869	1141.9806	1157.5905	1176.717	1196.7762	1214.0689	1234.7352	1241.8026	1277.1582	1299.7463	1343.0071	1368.118	1394.5952	1403.4415	1425.6285	1462.5359	1466.675	1490.5516	1494.1723	1505.8774	1511.7273	1515.8425	3001.6313	3012.9034	3022.2295	3029.2823	3052.083	3053.8828	3063.1917	3085.3127	3091.2195	3097.795	3123.5244	3134.5762	3140.4938	3145.1997
CC(C)CC12CC(C1)O2	CC(C)C[C@@]12C[C@@H](C1)O2	
InChI=1S/C8H14O/c1-6(2)3-8-4-7(5-8)9-8/h6-7H,3-5H2,1-2H3	InChI=1S/C8H14O/c1-6(2)3-8-4-7(5-8)9-8/h6-7H,3-5H2,1-2H3/t7-,8+
