16
gdb 123902	2.77209	1.47429	0.99479	5.0977	77.47	-0.22	-0.0503	0.1697	1133.2626	0.126164	-434.090543	-434.082513	-434.081569	-434.123503	29.513	
C	-0.0368577472	 1.4716026261	 0.0278398176	-0.202024
C	 1.3191685992	 2.1791627197	 0.0273876529	-0.151856
N	 2.0957261813	 1.7805079063	 1.1908392048	-0.337594
C	 2.1199229702	 0.5218746822	 1.7423646851	 0.371064
C	 1.1073299331	-0.3954582368	 1.1893825057	 0.138746
C	 0.1511718206	-0.0508517922	 0.0671537998	-0.308828
N	 1.0834984411	-1.5860852507	 1.7157117276	 0.185465
N	 1.0578569408	-2.6238855112	 2.1717937598	-0.235297
O	 2.9000774811	 0.2106790918	 2.6284695381	-0.403976
H	-0.6094314592	 1.7963276848	 0.9032270739	 0.120832
H	-0.5994160888	 1.7564544303	-0.8661876966	 0.108727
H	 1.8532248464	 1.9544485824	-0.9098319461	 0.107781
H	 1.1783121799	 3.2639740412	 0.0626618576	 0.116118
H	 2.8470359815	 2.373591593	 1.5087189124	 0.250358
H	-0.8112870324	-0.5522582422	 0.2134026325	 0.121213
H	 0.5428272324	-0.3948971547	-0.9010084451	 0.119272
77.2591	130.1121	150.6435	216.4934	305.6529	369.1575	423.0465	484.287	517.78	554.7749	599.688	642.0037	685.0133	739.4796	879.456	884.9372	949.7855	1002.6695	1093.6761	1111.6753	1188.2363	1203.2419	1226.9998	1284.5145	1329.6407	1337.2883	1376.5773	1382.9995	1414.6911	1465.5552	1481.9706	1496.9047	1521.444	1757.1991	2211.6521	2973.7351	2997.7301	3046.5773	3066.0956	3072.4619	3098.9075	3627.666
C1CNC2=C(C1)N=NO2	C1CNC(=O)[C](C1)[N][N]	
InChI=1S/C5H7N3O/c1-2-4-5(6-3-1)9-8-7-4/h6H,1-3H2	InChI=1S/C5H7N3O/c6-8-4-2-1-3-7-5(4)9/h1-3H2,(H,7,9)
