21
gdb 39294	2.53117	2.02804	1.7639	1.3684	80.	-0.2405	0.0767	0.3172	915.4993	0.187507	-387.096348	-387.089808	-387.088864	-387.126854	28.37	
C	-0.0262276566	 1.5153239545	 0.1086841905	-0.232284
C	 1.5229989292	 1.4026136476	 0.0239361602	-0.058204
C	 2.0341764084	 1.0543042869	 1.4205947729	-0.081009
O	 1.1309185155	 0.172374842	 2.0827155854	-0.272739
C	 0.4725462739	-0.7455363957	 1.2089031778	 0.110167
C	 1.4438186332	-1.8189106291	 0.6752684704	-0.218132
C	 2.1652816849	-1.1539018927	-0.5312447115	-0.251948
C	 1.32239219	 0.0963235866	-0.8289491834	 0.014089
C	-0.0278879438	-0.0190961248	-0.0690519614	-0.047611
H	-0.4535888952	 1.9302123232	 1.0249940331	 0.101499
H	-0.4517085	 2.0207595709	-0.7617074309	 0.093165
H	 2.099826206	 2.2209146213	-0.4145940443	 0.060852
H	 3.0448634874	 0.6187804921	 1.374793926	 0.089279
H	 2.0919669128	 1.952918331	 2.0456574978	 0.103362
H	-0.3345728901	-1.1731822582	 1.8097141687	 0.073682
H	 2.1204517243	-2.1560765737	 1.4646646912	 0.104257
H	 0.8708899175	-2.6908675875	 0.340505241	 0.096683
H	 3.2071163477	-0.9054839722	-0.3030261507	 0.101161
H	 2.1880829967	-1.821795733	-1.3974626331	 0.09434
H	 1.2329848421	 0.3326194976	-1.8914832775	 0.061762
H	-0.8831175639	-0.5229112069	-0.526520262	 0.057628
153.8194	282.6216	354.1658	386.4684	394.1782	510.7703	587.7268	655.2193	714.4537	761.29	788.86	833.4093	841.6778	880.4862	889.9916	907.1969	942.9772	966.9244	982.6526	1012.6982	1019.4937	1046.6094	1067.2034	1081.9806	1094.4221	1139.2073	1146.9761	1173.6611	1215.4691	1235.6377	1250.97	1252.7634	1277.8973	1287.775	1289.7093	1308.7935	1331.255	1341.8314	1359.8923	1369.1849	1407.4567	1474.7986	1489.4964	1496.1019	1517.2929	2977.7477	3040.4073	3046.3335	3053.0074	3057.7245	3068.2	3072.0924	3077.058	3080.233	3090.7963	3103.6453	3115.4949
C1C2COC3CCC2C13	C1[C@H]2CO[C@@H]3CC[C@H]2[C@H]13	
InChI=1S/C8H12O/c1-2-8-7-3-5(4-9-8)6(1)7/h5-8H,1-4H2	InChI=1S/C8H12O/c1-2-8-7-3-5(4-9-8)6(1)7/h5-8H,1-4H2/t5-,6+,7-,8+/m0/s1
