15
gdb 132618	3.18332	1.36029	0.95599	3.7148	73.46	-0.1972	-0.0083	0.1889	1132.1348	0.114861	-458.163612	-458.156061	-458.155117	-458.195337	29.838	
N	 0.0410327079	 1.4294880034	 0.0793868005	-0.612645
C	-0.0131575942	 0.0204289578	 0.0157015937	 0.22403
C	-1.1843950782	-0.7219091973	 0.0538008313	-0.137794
C	-1.1349079986	-2.117013884	 0.0256942252	-0.287762
C	 0.1214801524	-2.6901555135	-0.0575004375	 0.314052
F	 0.2267212269	-4.0199576302	-0.1058788191	-0.082684
N	 1.2592232363	-2.02632042	-0.0811875956	-0.384436
C	 1.2038109809	-0.6964570009	-0.0347473746	 0.335701
N	 2.3993062227	 0.0083863684	-0.0896176932	-0.578019
H	 0.6416832361	 1.8181900066	-0.6410089622	 0.250889
H	-0.8742069818	 1.8570086841	 0.0141689332	 0.243482
H	-2.1432511153	-0.2132798837	 0.0977967856	 0.09626
H	-2.0256318872	-2.7299835281	 0.0544809383	 0.107208
H	 3.202366571	-0.585493152	 0.0668477391	 0.256205
H	 2.4072193511	 0.8425343994	 0.4840433252	 0.255514
142.6857	229.7728	243.9017	304.5872	346.9268	379.6708	457.1999	488.3852	493.2785	532.2895	589.5134	661.6939	707.4221	744.0296	774.3769	799.5285	810.256	844.1948	934.2662	998.7732	1077.6734	1136.5852	1171.0708	1270.0493	1286.5844	1346.0558	1396.6111	1481.1689	1513.0397	1616.1651	1639.888	1647.0529	1666.6212	3169.3931	3222.9042	3503.2658	3536.2985	3606.062	3648.7069
NC1=CC=C(F)N=C1N	Nc1ccc(F)nc1N	
InChI=1S/C5H6FN3/c6-4-2-1-3(7)5(8)9-4/h1-2H,7H2,(H2,8,9)	InChI=1S/C5H6FN3/c6-4-2-1-3(7)5(8)9-4/h1-2H,7H2,(H2,8,9)
