21
gdb 122839	7.02464	0.49589	0.47012	2.9077	77.57	-0.2461	-0.011	0.2351	2318.6961	0.178112	-461.363517	-461.352038	-461.351093	-461.402822	38.232	
C	-0.1772659937	 1.5425804414	 0.0097331376	-0.38494
C	-0.050072481	 0.0287238317	 0.0275934437	-0.028752
O	-1.3465064446	-0.5334566918	-0.0063431422	-0.249496
C	-1.3391043207	-1.9440690853	 0.0056393724	-0.049788
C	-2.7849898566	-2.4164511468	-0.0402984649	-0.326164
C	-2.9118264302	-3.9318446349	-0.0465008373	 0.369217
O	-1.9583428501	-4.6659044764	-0.130738755	-0.27955
C	-4.3398984176	-4.4618052624	 0.0639218057	-0.167001
O	-4.3375236389	-5.8601838038	-0.0424497995	-0.394173
H	 0.8120671185	 2.0089756764	 0.0353686933	 0.115013
H	-0.6940995881	 1.8736627175	-0.8955838729	 0.125244
H	-0.74776746	 1.8901221123	 0.875814532	 0.124945
H	 0.5382880889	-0.3212131611	-0.8375839847	 0.087153
H	 0.4847975412	-0.3045786467	 0.9332273323	 0.08648
H	-0.7823974812	-2.345117549	-0.8546998115	 0.1049
H	-0.841649876	-2.3281896763	 0.9102250076	 0.099101
H	-3.3440866468	-2.0016138146	 0.8080961516	 0.126053
H	-3.2751513731	-2.0164739461	-0.9379815593	 0.133148
H	-4.7451295329	-4.1077433144	 1.0285918903	 0.108897
H	-4.9427434734	-3.9729938401	-0.7213932251	 0.106475
H	-5.2444423838	-6.1671827095	 0.0452570358	 0.293239
20.5134	41.4418	76.2476	87.8578	102.3672	138.8515	204.9544	226.8595	248.005	260.9103	322.5054	428.9511	469.1478	498.6191	675.7058	756.9265	821.0084	848.8019	909.25	927.3966	1002.1875	1047.6268	1093.5743	1105.6821	1144.2551	1162.493	1169.5129	1184.5986	1217.1923	1236.919	1260.5175	1296.422	1303.2172	1330.1063	1390.7164	1408.2982	1443.4928	1448.5853	1463.1281	1483.6539	1495.1357	1499.7432	1515.256	1535.9796	1824.701	2948.023	2953.3598	2969.6003	2978.4944	2981.1083	3009.9151	3028.9214	3044.0491	3063.9703	3118.7876	3119.8661	3836.7973	20.5126	41.4415	76.2471	87.8576	102.3671	138.8517	204.9543	226.8576	248.0049	260.9103	322.5054	428.9511	469.1477	498.6191	675.7058	756.9264	821.0084	848.8018	909.25	927.3967	1002.1875	1047.6268	1093.5744	1105.6821	1144.255	1162.4931	1169.513	1184.5986	1217.1923	1236.919	1260.5175	1296.422	1303.2172	1330.1065	1390.7164	1408.2983	1443.4929	1448.5854	1463.1282	1483.6539	1495.1357	1499.7432	1515.2559	1535.9795	1824.7011	2948.0229	2953.3598	2969.6002	2978.4944	2981.1083	3009.9151	3028.9215	3044.0491	3063.9702	3118.7876	3119.8661	3836.7969
CCOCCC(=O)CO	CCOCCC(=O)CO	
InChI=1S/C6H12O3/c1-2-9-4-3-6(8)5-7/h7H,2-5H2,1H3	InChI=1S/C6H12O3/c1-2-9-4-3-6(8)5-7/h7H,2-5H2,1H3
