21
gdb 40193	2.97528	1.51963	1.23787	1.6724	81.34	-0.2417	0.0818	0.3235	1083.4901	0.184855	-387.075786	-387.068175	-387.067231	-387.107762	30.853	
C	 0.1284820861	 1.5162997292	-0.0060177744	-0.331328
C	 1.3113278841	 0.5851331492	 0.1304012734	-0.324775
C	-0.0865614941	 0.0285177876	-0.0006769392	 0.402851
C	-0.7353478303	-0.7005470726	 1.175548639	-0.297318
C	-0.6689917976	-2.1834137608	 0.7559879223	-0.225344
C	-0.911266533	-2.1476680209	-0.7514867925	 0.130832
O	-2.2951918375	-1.8778097444	-1.0862819961	-0.299717
C	-1.9540550461	-0.6134801209	-1.6926934415	-0.08404
C	-0.4791022849	-0.7387313102	-1.2540944968	-0.150203
H	-0.181359462	 2.0797175678	 0.868207786	 0.111107
H	 0.0076203501	 2.0521886708	-0.9421586372	 0.10968
H	 1.9854359204	 0.491361053	-0.7151523028	 0.108719
H	 1.7993061371	 0.5190297149	 1.0976318129	 0.110115
H	-0.2365993177	-0.4963924646	 2.1272144112	 0.093117
H	-1.7830828729	-0.3958438224	 1.2813013919	 0.111591
H	 0.3313829056	-2.5913343683	 0.9462273313	 0.09729
H	-1.39737716	-2.8182192331	 1.2681609978	 0.106733
H	-0.539268305	-3.0289268447	-1.2856004942	 0.066675
H	-2.1141302697	-0.6294493652	-2.7788060459	 0.094284
H	-2.5199636277	 0.2211389638	-1.2603641312	 0.099984
H	 0.2587840852	-0.673249508	-2.0549413139	 0.069746
96.8503	165.6123	213.2201	288.1713	326.8705	369.8655	431.3114	533.2319	624.6176	717.0609	779.6729	816.6258	831.275	862.1487	892.7582	907.6725	929.605	936.6358	952.7739	980.4481	1017.5428	1020.1867	1046.4026	1054.7756	1060.5865	1079.8808	1102.3197	1162.9664	1174.1664	1178.1133	1189.1813	1215.0928	1267.7048	1282.5442	1292.5252	1319.4776	1323.466	1356.0396	1363.8025	1398.1703	1467.6181	1469.1638	1491.4998	1506.655	1523.8683	3004.6915	3031.7372	3038.5879	3048.401	3049.6151	3088.7894	3098.5637	3100.1129	3121.5934	3126.3003	3199.347	3214.0688
C1CC11CCC2OCC12	C1CC21CC[C@H]1OC[C@@H]21	
InChI=1S/C8H12O/c1-2-8(3-4-8)6-5-9-7(1)6/h6-7H,1-5H2	InChI=1S/C8H12O/c1-2-8(3-4-8)6-5-9-7(1)6/h6-7H,1-5H2/t6-,7-/m1/s1
