20
gdb 15001	4.20977	1.35004	1.09598	1.9434	70.68	-0.2558	0.0809	0.3368	1119.5121	0.1787	-386.1468	-386.138824	-386.13788	-386.179218	30.08	
C	-0.0951763683	 1.5565090363	 0.067912319	-0.38956
C	 0.0140519997	 0.0293336884	-0.0123973015	-0.190302
C	 0.7510749774	-0.4894955223	-1.2538590315	 0.008887
C	 2.239861985	-0.1122841755	-1.2769778834	-0.088222
O	 2.9001144516	-0.7080949864	-2.3859953541	-0.235916
C	 2.7501843231	-2.1016249612	-2.3771002572	 0.015726
O	 1.4105913007	-2.5056006011	-2.4634829668	-0.235852
C	 0.6599603471	-2.0183284087	-1.3598299089	-0.098892
H	 0.8862413167	 2.0344773708	 0.1482438839	 0.121439
H	-0.590742226	 1.9635384893	-0.8201926797	 0.119513
H	-0.678132105	 1.8601227588	 0.942715677	 0.116205
H	 0.5113536574	-0.3514781289	 0.8903068942	 0.096792
H	-0.9957045648	-0.4016622288	-0.0026508417	 0.098583
H	 0.2886769993	-0.0681067883	-2.1559805621	 0.086175
H	 2.3889064584	 0.9653581321	-1.3756739634	 0.111953
H	 2.7178030036	-0.4384138278	-0.3352107803	 0.083496
H	 3.26014351	-2.4857872789	-3.2627298121	 0.116246
H	 3.2078311331	-2.5203339729	-1.4583316995	 0.069976
H	 1.0271678098	-2.4783618666	-0.4245473004	 0.083628
H	-0.3718337888	-2.3469726884	-1.5140584314	 0.110124
83.2192	137.7188	206.0388	242.865	261.5238	354.4801	398.251	442.176	474.0686	492.2242	662.4147	773.1846	891.1308	909.0201	933.018	958.3141	964.1489	1020.2247	1043.3861	1067.2343	1089.3418	1145.0715	1164.0595	1189.0192	1214.7988	1241.0596	1274.8572	1308.8738	1325.6198	1336.1029	1362.8922	1380.712	1391.1845	1415.2103	1421.6791	1444.5578	1485.9142	1494.8375	1496.8149	1502.3076	1507.8072	1512.2687	2903.7162	2942.1548	2951.0101	3010.424	3027.0944	3035.4329	3045.2399	3084.825	3096.4693	3103.0463	3108.107	3113.1972
CCC1COCOC1	CCC1COCOC1	
InChI=1S/C6H12O2/c1-2-6-3-7-5-8-4-6/h6H,2-5H2,1H3	InChI=1S/C6H12O2/c1-2-6-3-7-5-8-4-6/h6H,2-5H2,1H3
