15
gdb 32390	4.11026	1.04898	0.84012	2.2689	81.51	-0.1972	-0.0162	0.1811	1307.0111	0.112508	-416.80593	-416.797511	-416.796566	-416.839199	30.838	
C	-0.0141353738	 1.4007809178	 0.014008199	-0.235141
O	 0.0035335002	-0.0237173192	-0.0026978006	-0.282799
C	 0.6238934001	-0.6131124088	 1.0343514201	 0.364356
C	 0.7521755211	-1.977539403	 1.2061928787	-0.213819
N	 1.446211021	-2.1059877826	 2.3860547291	-0.293374
C	 1.7035101997	-0.8542975768	 2.8655976907	 0.19455
N	 1.205647991	 0.0734456704	 2.0496440217	-0.397323
C	 2.4056602976	-0.6379973461	 4.0697515385	 0.270488
C	 3.0076748745	-0.4832573867	 5.1014044487	-0.406005
H	 1.0012206103	 1.8097883283	 0.0032239056	 0.132963
H	-0.5492867196	 1.7004936547	-0.8883711549	 0.124497
H	-0.5302765286	 1.7802689967	 0.9016636007	 0.132985
H	 0.4259381248	-2.8187767382	 0.6213628847	 0.138129
H	 1.7220468796	-2.9671027127	 2.8275276841	 0.273869
H	 3.5370424822	-0.3316203938	 6.0092146739	 0.196624
85.79	130.4624	136.4691	178.9301	249.709	333.4894	448.0772	479.7491	541.7568	547.3986	559.0859	576.7729	656.6923	688.4532	712.6321	737.9686	740.319	993.0423	1024.7632	1084.4443	1109.9415	1181.2639	1209.4593	1246.2688	1336.2455	1389.9114	1432.0026	1464.9829	1480.7437	1502.5927	1540.178	1611.8027	2231.4261	3034.0487	3100.7994	3141.7245	3294.2881	3503.1894	3668.2417
COC1=CNC(=N1)C#C	COc1c[nH]c(n1)C#C	
InChI=1S/C6H6N2O/c1-3-5-7-4-6(8-5)9-2/h1,4H,2H3,(H,7,8)	InChI=1S/C6H6N2O/c1-3-5-7-4-6(8-5)9-2/h1,4H,2H3,(H,7,8)
