19
gdb 111773	1.90456	1.75065	1.14448	3.4947	71.96	-0.2372	0.0614	0.2986	1128.7427	0.158548	-460.102044	-460.093006	-460.092062	-460.13596	33.48	
O	 0.0030830134	 0.3035198335	 1.1540577439	-0.417727
C	-0.2501494218	 0.1190553553	-0.2444000846	-0.119112
C	-1.5636244731	-0.6085766698	-0.3109435345	-0.066635
C	-2.0653018831	-1.5704064529	-1.3729192836	-0.252655
C	-0.9190663973	-2.4223160674	-1.8978151575	-0.098121
O	-0.4919513868	-2.7545280789	-0.5528053021	-0.31605
C	-1.6365014232	-2.0777773544	-0.0040924101	 0.441273
C	-2.254445358	-2.6109418455	 1.2461410777	-0.152448
O	-1.4408089285	-2.3222795626	 2.3699853099	-0.428429
H	 0.9237435522	 0.5563034228	 1.2696708842	 0.293272
H	-0.3001587623	 1.0898946995	-0.7584438308	 0.093274
H	 0.5421261883	-0.4807895007	-0.7059944308	 0.110961
H	-2.3830220792	-0.0534091313	 0.1426690075	 0.102427
H	-3.0441793931	-1.4742676167	-1.8240589745	 0.105098
H	-1.2595529043	-3.3207284992	-2.4245808738	 0.114358
H	-0.1314576059	-1.9318117879	-2.4814461221	 0.104003
H	-3.2642070746	-2.1776081219	 1.3458118884	 0.084884
H	-2.3603577701	-3.6999257493	 1.1967539679	 0.110962
H	-1.0330483727	-1.4570901426	 2.218377915	 0.290664
91.3826	105.81	115.1506	210.0478	229.2558	255.7016	303.6951	353.4865	442.7479	473.5541	500.338	569.1089	714.7093	798.8114	832.743	915.6271	936.6535	959.8961	977.6247	994.0474	1019.164	1035.1184	1052.1722	1066.3552	1104.3784	1134.2292	1162.8371	1176.835	1235.5411	1255.7434	1262.6242	1289.8646	1324.561	1341.4115	1362.0762	1434.7587	1455.9042	1496.629	1499.3925	1506.1908	1522.2575	2961.4321	2997.1805	3026.7331	3059.8875	3068.6414	3073.1268	3133.089	3197.9228	3724.4506	3833.8069
OCC1C2COC12CO	OC[C@H]1[C@H]2CO[C@@]12CO	
InChI=1S/C6H10O3/c7-1-4-5-2-9-6(4,5)3-8/h4-5,7-8H,1-3H2	InChI=1S/C6H10O3/c7-1-4-5-2-9-6(4,5)3-8/h4-5,7-8H,1-3H2/t4-,5+,6-/m0/s1
