27
gdb 101613	2.06637	1.14639	0.90845	0.9857	92.73	-0.241	0.0752	0.3162	1507.0235	0.24771	-390.707846	-390.695809	-390.694865	-390.744568	45.125	
C	-0.6103427599	 1.574296142	-0.7570315371	-0.38804
C	-0.2419913741	 0.1488579045	-0.3451695486	-0.161145
C	-1.4441565611	-0.7515404926	-0.0279117277	 0.139248
C	-0.9801879398	-2.1745779838	 0.3027229921	-0.392436
O	-2.1317788883	-0.1787002202	 1.0844136501	-0.306683
C	-3.5680468834	-0.1276928201	 1.1062168119	 0.364168
C	-4.2024920592	-1.519433708	 0.9476762844	-0.40933
C	-3.8799632695	 0.4307936612	 2.4991029749	-0.394407
C	-4.1063171514	 0.8280627271	 0.0275054684	-0.407449
H	 0.2865374043	 2.1678560231	-0.9598230998	 0.107122
H	-1.2259148676	 1.5835209688	-1.6637526528	 0.106121
H	-1.1731368965	 2.0694370992	 0.0379527434	 0.127917
H	 0.3447527213	-0.3305293997	-1.1385661059	 0.088624
H	 0.3995173935	 0.1762719098	 0.5447803924	 0.100359
H	-2.1018397913	-0.7811100786	-0.9085456614	 0.064555
H	-0.3445746183	-2.1602771718	 1.1939754139	 0.119703
H	-1.8225148592	-2.8410256632	 0.4984965654	 0.112099
H	-0.4005564024	-2.5945199338	-0.5264031992	 0.10638
H	-3.8214670034	-2.2057564129	 1.7090906199	 0.11947
H	-5.2891512894	-1.451990585	 1.0620030453	 0.110314
H	-4.0034420277	-1.9480762575	-0.0390579435	 0.112485
H	-3.4047246103	 1.407109347	 2.6283915902	 0.116839
H	-4.9586243996	 0.5453826009	 2.6421090924	 0.106095
H	-3.4932190629	-0.2405576506	 3.2707765718	 0.116013
H	-3.8763741079	 0.4768867001	-0.9829583925	 0.111911
H	-5.1951083182	 0.9127125442	 0.1039784328	 0.110098
H	-3.6757559879	 1.8255121199	 0.1496005994	 0.119966
46.7268	93.4401	121.957	185.773	198.5205	211.3876	225.995	247.8182	265.7246	290.1043	297.5521	347.0198	359.3515	388.4216	448.4463	460.8013	500.2154	514.6655	724.7539	780.0687	833.4432	865.0199	902.9298	915.8718	954.1701	957.6995	985.9151	1019.3427	1038.7925	1044.5164	1060.3303	1123.317	1144.1598	1192.9711	1223.6384	1247.5054	1270.5764	1303.602	1319.5123	1374.9373	1386.2015	1394.3266	1398.	1402.733	1405.3887	1424.009	1470.8625	1472.7474	1480.9929	1483.7491	1492.0657	1494.0458	1495.1334	1500.5332	1503.1764	1509.7118	1519.3446	2997.1906	3022.8232	3033.5299	3035.4769	3038.0893	3039.6149	3045.525	3060.8458	3096.949	3101.1957	3106.2384	3107.0526	3114.4434	3115.5505	3120.4819	3121.2865	3124.9678	3130.6864
CCC(C)OC(C)(C)C	CC[C@@H](C)OC(C)(C)C	
InChI=1S/C8H18O/c1-6-7(2)9-8(3,4)5/h7H,6H2,1-5H3	InChI=1S/C8H18O/c1-6-7(2)9-8(3,4)5/h7H,6H2,1-5H3/t7-/m1/s1
