17
gdb 52593	2.01536	1.0982	0.91085	0.925	89.06	-0.2516	0.0307	0.2824	1413.0008	0.130433	-347.451544	-347.440683	-347.439739	-347.488503	38.299	
C	-0.0369406153	 1.4884516583	 0.0051202063	-0.499725
C	-0.0005634291	 0.0335245319	-0.0004640884	 0.040954
C	 0.0439469383	-1.1682029145	-0.0060509751	 0.133047
C	 0.0605055572	-2.6432127591	-0.0103635189	-0.324603
C	-1.4006636225	-3.1825861606	 0.0862592243	-0.395002
C	 0.6743855173	-3.1331021819	-1.2603683257	 0.3646
C	 1.1415647536	-3.5479953192	-2.2853101474	-0.472684
C	 0.8353419342	-3.1383250889	 1.144557836	 0.364601
C	 1.434815747	-3.5575146223	 2.0962979803	-0.472684
H	 0.5221546683	 1.8937254266	 0.8554181211	 0.15314
H	 0.4052415186	 1.8975696986	-0.9097228755	 0.153142
H	-1.0647752891	 1.8608384207	 0.0740051045	 0.14986
H	-1.9774021318	-2.8219672895	-0.7676321203	 0.134942
H	-1.3898133063	-4.2743587375	 0.0831623703	 0.135588
H	-1.8583648365	-2.8258280453	 1.0109412093	 0.134942
H	 1.5701396594	-3.9066425423	-3.1883582837	 0.199942
H	 1.9798003366	-3.919943395	 2.9326216627	 0.199942
21.1779	79.6965	95.1456	130.4659	188.0412	197.3879	248.26	276.9329	298.7906	371.3381	453.2272	467.6085	511.8143	549.9258	557.373	629.0438	638.4726	641.2902	646.2396	648.0131	864.0521	940.9753	1023.9695	1052.4569	1053.4189	1085.1145	1186.5001	1233.7754	1396.7784	1413.6078	1477.1737	1477.4512	1484.7918	1485.2463	2239.4697	2244.8228	2377.6136	3029.3023	3055.7132	3091.4494	3092.2547	3145.4586	3146.3888	3502.2784	3502.9535
CC#CC(C)(C#C)C#C	CC#CC(C)(C#C)C#C	
InChI=1S/C9H8/c1-5-8-9(4,6-2)7-3/h2-3H,1,4H3	InChI=1S/C9H8/c1-5-8-9(4,6-2)7-3/h2-3H,1,4H3
