13
gdb 15328	3.29787	1.32513	1.00664	3.5567	67.98	-0.2669	-0.0124	0.2545	1126.6236	0.093308	-361.420896	-361.412525	-361.411581	-361.45633	27.792	
C	 0.0770881139	 1.4986708395	 0.0321117808	-0.503285
C	 0.0428906437	 0.0458815916	 0.0539943781	 0.140083
C	 0.0007376489	-1.1571216871	 0.0779561566	 0.087244
C	-0.0281366625	-2.588891817	 0.0902376614	-0.162024
O	-0.6299078422	-3.2481895832	 1.2165847468	-0.215037
C	-1.2946072832	-3.3631873234	-0.0345674264	-0.097813
C	-2.5676309533	-2.6895778251	-0.1709654595	 0.313392
N	-3.5951453883	-2.179687103	-0.3096606692	-0.320921
H	 0.8796482733	 1.8634857185	-0.6175016997	 0.157663
H	-0.8693528472	 1.9077970667	-0.3362917301	 0.165622
H	 0.249428177	 1.9004809602	 1.0362429087	 0.161817
H	 0.8667886415	-3.0909194801	-0.2764792595	 0.12996
H	-1.2582782617	-4.3495371075	-0.4944343278	 0.143298
9.7656	65.6812	122.5654	185.0203	229.1961	321.0181	336.6584	448.5905	508.9288	581.3494	612.1284	733.6434	835.1085	889.7883	962.6818	1049.373	1051.9253	1069.6673	1121.5577	1183.0565	1274.0901	1372.3291	1411.7122	1420.3932	1472.1181	1474.1736	2364.2015	2374.6806	3033.4745	3097.9568	3100.2785	3114.422	3130.0526
CC#CC1OC1C#N	CC#C[C@H]1O[C@H]1C#N	
InChI=1S/C6H5NO/c1-2-3-5-6(4-7)8-5/h5-6H,1H3	InChI=1S/C6H5NO/c1-2-3-5-6(4-7)8-5/h5-6H,1H3/t5-,6+/m1/s1
