18
gdb 82123	3.37303	1.22594	1.04646	3.6632	75.2	-0.2646	0.0349	0.2995	1156.0965	0.148266	-401.932878	-401.924565	-401.923621	-401.966044	31.586	
O	-0.0092679137	 1.4041920094	 0.074879576	-0.431674
C	 0.0130753248	-0.0001599505	-0.0310404948	 0.095147
C	-1.3651625478	-0.6426087945	 0.0663309932	-0.045012
C	-2.2402703808	-0.1665140519	-1.0556685249	-0.285773
C	-1.215080625	-1.2262384959	-1.3477176586	-0.083698
C	 0.1881093319	-0.6269577635	-1.4714743762	-0.037446
C	 0.4750886615	 0.3331756902	-2.6374386261	-0.351709
C	 1.7304618156	 1.0524966074	-2.4273672515	 0.255949
N	 2.7218187795	 1.6050257729	-2.205195369	-0.323632
H	 0.8960596727	 1.7300407948	 0.0125800245	 0.299471
H	 0.7271847137	-0.4417929855	 0.6738839545	 0.080157
H	-1.770653623	-1.1087715235	 0.9551212474	 0.092329
H	-3.2642526537	-0.5232557267	-1.0189258127	 0.117654
H	-2.1391310399	 0.847197558	-1.4296673858	 0.125939
H	-1.4963791035	-2.2122566363	-1.6962683222	 0.09282
H	 0.9591096588	-1.4015465046	-1.4494363643	 0.090566
H	 0.531956663	-0.2178184538	-3.5827255905	 0.149679
H	-0.325734574	 1.070864224	-2.7387527789	 0.159232
67.8488	109.1874	165.3185	231.3846	273.1874	378.0967	395.1823	424.0565	480.7189	547.4533	618.8041	681.2564	781.4806	801.3254	827.912	909.6597	937.6232	943.7166	979.0779	1001.5437	1029.3582	1056.894	1067.3798	1086.063	1108.1418	1126.5094	1168.4378	1212.2733	1233.9419	1251.5955	1281.4672	1304.3528	1333.3441	1367.8088	1378.9542	1429.6702	1458.1424	1495.339	2353.0918	3029.6662	3054.0862	3072.8312	3104.9374	3129.2169	3184.3351	3195.231	3213.2125	3799.9879
OC1C2CC2C1CC#N	O[C@H]1[C@H]2C[C@H]2[C@H]1CC#N	
InChI=1S/C7H9NO/c8-2-1-4-5-3-6(5)7(4)9/h4-7,9H,1,3H2	InChI=1S/C7H9NO/c8-2-1-4-5-3-6(5)7(4)9/h4-7,9H,1,3H2/t4-,5+,6+,7-/m1/s1
