25
gdb 118264	4.13327	0.54718	0.50242	0.9236	96.5	-0.2562	0.0595	0.3158	2256.9646	0.225893	-352.338208	-352.326447	-352.325503	-352.376277	42.169	
C	 0.1302391163	 1.6230495112	 0.0193040889	-0.378458
C	 0.0087274805	 0.0961332428	 0.0110677374	-0.17772
C	 0.6187207824	-0.5380823326	-1.2452858062	-0.167046
C	 0.6153346031	-2.079135039	-1.2770400251	 0.028338
C	-0.8111030058	-2.649232286	-1.3004443667	-0.393887
C	 1.4524120573	-2.5742439279	-2.4713105103	-0.176406
C	 1.7157340239	-4.095314023	-2.4804818083	-0.37158
C	 2.5813207677	-4.5090117261	-3.5783619414	 0.295615
C	 3.2957323588	-4.8234411623	-4.4927331884	-0.437518
H	 1.1789028493	 1.93746953	-0.0270909399	 0.113476
H	-0.3837944259	 2.0654507577	-0.8413626559	 0.113819
H	-0.3071266946	 2.054339248	 0.9252085791	 0.110401
H	 0.5053865291	-0.3150838131	 0.9003308508	 0.093067
H	-1.0486013757	-0.179672898	 0.0979090323	 0.098771
H	 0.0931221325	-0.1602359089	-2.1346073679	 0.090062
H	 1.6563236911	-0.1901925858	-1.3400987852	 0.089084
H	 1.1079269296	-2.4307121971	-0.3570816575	 0.067389
H	-0.8153564822	-3.7430946479	-1.2854683827	 0.114057
H	-1.3927266957	-2.3167042825	-0.4364157666	 0.116889
H	-1.3420263939	-2.3264928869	-2.2044679193	 0.112834
H	 0.9593626028	-2.2932807081	-3.4106498846	 0.104647
H	 2.4212606386	-2.0620051568	-2.4688448338	 0.104582
H	 2.1723063059	-4.3903353173	-1.5259036315	 0.126747
H	 0.7694480632	-4.6450389293	-2.5462937759	 0.131588
H	 3.9259477619	-5.1134462611	-5.2962574713	 0.191248
45.5057	66.6673	71.2964	93.1645	117.1967	181.3727	226.9145	247.5877	268.401	314.0308	343.9337	353.462	420.3102	489.4451	546.6919	613.8987	632.8794	741.1012	762.7931	838.6395	871.0743	898.734	943.4936	955.8701	966.6551	1024.8742	1031.5251	1046.9956	1082.7457	1138.6456	1144.075	1182.6999	1222.4925	1260.2913	1280.7704	1310.6466	1316.0256	1330.5726	1354.4358	1379.6365	1386.1544	1395.7281	1410.4153	1414.879	1470.8635	1480.0917	1491.4786	1495.1088	1497.8037	1499.1824	1506.6879	1512.2294	2237.9345	2982.2708	2999.282	3015.5039	3017.8857	3028.4358	3029.258	3032.322	3032.6639	3050.5216	3060.1947	3076.6908	3095.7683	3098.6699	3100.9127	3111.7467	3507.4206
CCCC(C)CCC#C	CCC[C@@H](C)CCC#C	
InChI=1S/C9H16/c1-4-6-8-9(3)7-5-2/h1,9H,5-8H2,2-3H3	InChI=1S/C9H16/c1-4-6-8-9(3)7-5-2/h1,9H,5-8H2,2-3H3/t9-/m1/s1
