13
gdb 25391	3.02061	1.40539	0.95913	6.0123	73.33	-0.2576	-0.1035	0.1541	1118.3294	0.089336	-456.62888	-456.621667	-456.620723	-456.66103	26.373	
O	 0.0007602045	-0.0368157127	-0.0027992104	-0.244869
C	 0.0158205344	 1.1666192834	 0.0079983311	 0.102176
C	 1.2448908658	 1.9968790966	 0.0015130073	 0.302831
C	 1.1943292723	 3.3515266636	 0.0137046794	-0.225285
C	 2.424092125	 4.0786236089	 0.006345465	-0.047617
C	 3.5994657448	 3.4071477855	-0.0124747138	-0.244029
C	 3.6522972198	 1.9517540953	-0.0257516814	 0.429087
O	 4.632694761	 1.2636280639	-0.0421757686	-0.326461
O	 2.3986803395	 1.3122782268	-0.0171703505	-0.242273
H	-0.9131859907	 1.7759840018	 0.0232020267	 0.090734
H	 0.2347441921	 3.8520703114	 0.0286944932	 0.131162
H	 2.4088397632	 5.1636123792	 0.0158848418	 0.133277
H	 4.5598034181	 3.9068870263	-0.0187585697	 0.141265
100.6843	144.185	180.2042	241.4198	416.8307	424.6193	484.7488	537.4796	607.33	656.0662	732.5248	732.911	823.9883	889.6578	907.4272	1011.8384	1014.383	1016.8223	1051.542	1104.5404	1197.8101	1218.795	1388.0223	1416.6761	1448.5999	1587.7931	1676.7748	1810.5566	1852.2708	2904.2825	3187.6284	3219.9071	3225.488
O=CC1=CC=CC(=O)O1	O=Cc1cccc(=O)o1	
InChI=1S/C6H4O3/c7-4-5-2-1-3-6(8)9-5/h1-4H	InChI=1S/C6H4O3/c7-4-5-2-1-3-6(8)9-5/h1-4H
