17
gdb 77194	3.53968	1.04247	0.89691	4.2169	79.77	-0.2562	-0.0004	0.2558	1287.391	0.135146	-380.826693	-380.817646	-380.816702	-380.860698	33.14	
C	 0.310682835	 1.7693664799	-0.0803600811	-0.415012
C	 0.0408149461	 0.2763983913	-0.1789642051	-0.011669
C	 0.5720730001	-0.3937236583	-1.4943117774	-0.16819
N	 1.7593022367	-0.8720913067	-0.7272762401	-0.304414
C	 1.0598198592	-0.65843635	 0.5576136457	-0.135218
C	 1.8807432297	-0.0881805077	 1.6257173096	 0.30159
N	 2.5082571113	 0.366766581	 2.4831131453	-0.327961
C	-0.2823713821	-1.4413992481	-2.0329024011	 0.323426
C	-0.9704157116	-2.3289560064	-2.4642631813	-0.450057
H	 1.3520428407	 2.0001768029	-0.3233032943	 0.145784
H	-0.3348121222	 2.3168644292	-0.7743851869	 0.124224
H	 0.1116526555	 2.136892022	 0.9305811991	 0.138254
H	-0.9994000908	 0.0442096872	 0.0492990387	 0.103746
H	 0.8458445044	 0.3128644815	-2.2859058275	 0.111869
H	 2.0356537047	-1.830300039	-0.9132095952	 0.23556
H	 0.5571869035	-1.5506713523	 0.953369784	 0.12173
H	-1.5806935303	-3.1052691464	-2.8558687826	 0.206339
58.7538	123.7416	150.7197	174.793	234.1804	251.9759	311.3309	358.5402	466.1432	500.6056	569.4227	595.897	634.7669	659.7724	691.4954	803.8602	836.3052	879.0667	976.5389	1008.9214	1031.347	1045.2841	1088.2706	1115.2538	1117.9691	1221.3338	1246.3465	1267.9831	1318.9878	1342.7945	1371.1611	1404.0295	1414.3506	1492.2059	1496.2744	2227.9922	2355.9266	3017.349	3038.7751	3041.6023	3104.9358	3112.4209	3125.3582	3500.5578	3536.8544
CC1C(NC1C#N)C#C	C[C@H]1[C@@H](N[C@H]1C#N)C#C	
InChI=1S/C7H8N2/c1-3-6-5(2)7(4-8)9-6/h1,5-7,9H,2H3	InChI=1S/C7H8N2/c1-3-6-5(2)7(4-8)9-6/h1,5-7,9H,2H3/t5-,6-,7-/m0/s1
