15
gdb 29151	3.17724	1.37052	0.95813	2.9274	74.81	-0.1801	-0.017	0.1631	1139.5314	0.114598	-454.015211	-454.007381	-454.006437	-454.047058	31.009	
N	 0.0031292161	 1.374060466	 0.1483028045	-0.577601
C	-0.0640801442	 0.0069697422	 0.058106433	 0.203073
C	-1.2069491026	-0.7458298418	 0.0373269533	-0.250599
C	-1.1426748649	-2.1672932192	-0.0002377321	 0.329108
O	-2.3430850932	-2.8239596194	-0.0099796261	-0.446796
C	 0.0659139281	-2.7882607873	-0.0211132964	-0.155821
N	 1.2124332229	-2.0110373228	-0.0118023869	-0.370554
C	 1.2577395657	-0.6377129399	 0.0161040394	 0.414649
O	 2.3144481881	-0.0067318376	-0.0040459878	-0.431035
H	 0.9226501231	 1.7366807627	-0.0672662126	 0.268096
H	-0.7806139127	 1.9149674615	-0.1776083126	 0.251531
H	-2.1875725623	-0.281601539	 0.05713209	 0.100164
H	-2.1861816248	-3.7732758975	-0.0357764719	 0.296144
H	 0.2061223515	-3.8604572212	-0.0454990113	 0.109901
H	 2.1174311491	-2.4571984867	-0.0470362825	 0.259738
136.9994	211.7461	304.3079	306.5057	358.4292	365.6668	395.4464	437.9015	470.9126	512.3141	550.0483	601.613	614.8065	663.9089	717.2376	721.9644	790.0663	818.6797	876.4637	994.9406	1097.0656	1156.9093	1190.706	1252.1585	1284.6959	1338.187	1406.4251	1455.5899	1512.3513	1589.6376	1638.2228	1687.06	1750.0495	3182.7421	3215.6944	3555.0379	3621.2888	3691.7839	3827.3428
NC1=CC(O)=CNC1=O	Nc1cc(O)c[nH]c1=O	
InChI=1S/C5H6N2O2/c6-4-1-3(8)2-7-5(4)9/h1-2,8H,6H2,(H,7,9)	InChI=1S/C5H6N2O2/c6-4-1-3(8)2-7-5(4)9/h1-2,8H,6H2,(H,7,9)
