20
gdb 81807	2.15567	1.81248	1.30359	0.8357	80.05	-0.2003	0.0714	0.2717	1070.0201	0.169373	-403.070823	-403.06208	-403.061136	-403.103559	34.571	
C	-0.2069002408	 1.4296429531	 0.001115314	-0.330457
N	 0.037853409	-0.0035537784	-0.016927899	-0.144561
C	 1.1738540678	-0.4061890244	-0.8788954759	-0.054296
C	 1.3048047217	-1.9088434851	-0.8463173998	-0.363795
C	 1.8824193657	-1.0816703648	 0.2764943111	 0.287613
O	 3.2150203014	-1.0999164619	 0.643804965	-0.453776
C	 0.7677915639	-0.552468212	 1.159352377	 0.313979
C	 0.9789752623	 0.1245057618	 2.4752071074	-0.337895
C	 0.163759708	-1.1555367497	 2.3869377703	-0.326726
H	 0.6867370383	 2.0367723316	 0.2296026323	 0.099936
H	-0.5895177607	 1.7345740908	-0.9786773173	 0.117865
H	-0.9779943487	 1.6640786968	 0.741725721	 0.117939
H	 1.5282953823	 0.2214279777	-1.6871526865	 0.100698
H	 0.4216140702	-2.5256164873	-0.7014814243	 0.114795
H	 2.0536084565	-2.304794923	-1.5269153807	 0.109598
H	 3.4685680945	-2.0130492155	 0.817123083	 0.288309
H	 1.978001745	 0.0759568575	 2.8958046565	 0.123976
H	 0.4487595335	 1.0475868644	 2.6814253926	 0.114898
H	-0.9111519694	-1.0699665819	 2.5068090413	 0.11691
H	 0.5897800594	-2.0743614297	 2.7781734319	 0.104991
99.286	201.7903	210.2075	237.0139	252.8994	274.4265	297.4243	399.6835	444.9962	473.1648	510.624	585.4026	653.3861	735.8882	782.4982	842.5915	856.885	894.8284	936.2957	944.4207	975.3768	997.2604	1010.8215	1040.8964	1046.7835	1070.337	1079.7679	1121.9999	1158.91	1184.4941	1187.8002	1214.7509	1250.7307	1276.8238	1320.1378	1373.8375	1418.1574	1450.8746	1456.5784	1484.331	1493.0932	1500.2533	1505.9682	2949.1851	3061.4182	3098.6094	3106.9727	3123.446	3134.0419	3191.4033	3203.9001	3206.5257	3223.2127	3793.786
CN1C2CC2(O)C11CC1	CN1[C@@H]2C[C@]2(O)C21CC2	
InChI=1S/C7H11NO/c1-8-5-4-7(5,9)6(8)2-3-6/h5,9H,2-4H2,1H3	InChI=1S/C7H11NO/c1-8-5-4-7(5,9)6(8)2-3-6/h5,9H,2-4H2,1H3/t5-,7-/m1/s1
