16
gdb 33707	3.86861	1.52242	1.27256	1.9351	80.7	-0.2294	-0.0086	0.2208	984.3749	0.124785	-363.525644	-363.518731	-363.517787	-363.556577	28.531	
C	 0.0612506445	-1.167113338	 0.0036695719	-0.340042
C	 0.0030223775	 0.0328717855	-0.0366338011	 0.17171
C	-0.1106219199	 1.4588002211	-0.0776386022	 0.165556
C	-1.2975408398	 2.1582861104	 0.4891713988	-0.165641
C	-1.3600243017	 3.4050382265	 0.007195925	-0.091873
C	-0.1246169623	 3.6738149822	-0.8122541289	-0.144054
C	 1.0743768331	 3.6239719105	 0.2055165629	-0.145001
N	 1.2859939393	 2.1682889612	-0.0254934569	-0.18579
C	 0.4020069383	 2.2673335553	-1.218770193	-0.083553
H	 0.1250663801	-2.2263171608	 0.0390690058	 0.185952
H	-1.952490495	 1.6948424183	 1.2141955991	 0.1107
H	-2.0592495451	 4.175587579	 0.3075529414	 0.10819
H	-0.1577631524	 4.4878823621	-1.5332669858	 0.081388
H	 1.959341406	 4.1344383243	-0.181901891	 0.120573
H	 0.8790715768	 3.9289681938	 1.2379121783	 0.107259
H	 0.6677417906	 1.8797254786	-2.1972122241	 0.104626
152.4779	153.8239	363.4551	380.1795	459.7663	489.3226	531.5084	556.375	599.3677	654.4151	658.3406	725.2624	753.2968	815.9303	864.7762	874.7416	879.0969	899.488	933.9993	972.5593	1007.3797	1037.9184	1073.8463	1112.9795	1150.2638	1187.5612	1206.0434	1226.8346	1280.2606	1297.2764	1310.2847	1381.6101	1489.2236	1637.5657	2245.311	3051.751	3115.3149	3135.5307	3163.6331	3205.5136	3236.0893	3504.1177
C#CC12C=CC3CN1C23	C#C[C@@]12C=C[C@H]3CN1[C@@H]23	
InChI=1S/C8H7N/c1-2-8-4-3-6-5-9(8)7(6)8/h1,3-4,6-7H,5H2	InChI=1S/C8H7N/c1-2-8-4-3-6-5-9(8)7(6)8/h1,3-4,6-7H,5H2/t6-,7+,8-,9?/m0/s1
