22
gdb 68991	2.80374	1.37689	1.11752	0.8881	87.48	-0.2125	0.0883	0.3008	1198.0972	0.19393	-367.154392	-367.145521	-367.144577	-367.188062	34.583	
C	-0.1357994939	 1.4727515683	 0.3071221323	-0.494366
C	 0.0571230436	 0.0023151413	 0.0703700139	 0.300732
C	-0.7860278682	-1.0578130415	 0.7576221568	-0.390714
C	 0.7180355535	-1.0833953315	 0.9212831579	 0.350538
C	 1.348048462	-1.7102929117	-0.3264637965	-0.274722
C	 0.6632294368	-0.6095486831	-1.2005354461	-0.274781
N	 1.4740840407	-0.9959173749	 2.1315830347	-0.154976
C	 0.8109205044	-0.7081357939	 3.3982162145	-0.231371
C	 1.3085540315	-2.0786074198	 3.1071516513	-0.228734
H	 0.7773387235	 2.034459715	 0.0793338267	 0.118259
H	-0.9378333319	 1.8733157627	-0.3254885193	 0.117166
H	-0.403028666	 1.6809028125	 1.3481787959	 0.116422
H	-1.3552474486	-0.6898072337	 1.6051684743	 0.105672
H	-1.3024449271	-1.8248172506	 0.1814391777	 0.094898
H	 2.4357871531	-1.6165734826	-0.3190714859	 0.109298
H	 1.0812603115	-2.7521251079	-0.5331486067	 0.088344
H	-0.0541460502	-0.9525658471	-1.9542114517	 0.089904
H	 1.3911753937	 0.0461671454	-1.6855788674	 0.099368
H	 1.3614652008	-0.0512566563	 4.0656537362	 0.116573
H	-0.2668014932	-0.5675899673	 3.4125184273	 0.112587
H	 0.5586174755	-2.8378222984	 2.8947152054	 0.114644
H	 2.2238861887	-2.4459644748	 3.5616997388	 0.115259
46.1598	132.9244	185.2021	203.7554	258.725	275.844	339.0886	398.3509	447.5238	520.6074	562.487	664.7413	716.9562	789.8459	813.1083	857.4586	883.8706	896.2227	930.0183	937.3308	968.6876	982.7668	1023.6408	1034.533	1053.1832	1090.1008	1106.5373	1120.9219	1148.3003	1153.6406	1172.7887	1193.9567	1213.1621	1225.6018	1235.8699	1255.6088	1293.4132	1352.6431	1402.366	1421.9364	1477.54	1480.4963	1486.782	1488.4821	1498.1181	1512.7122	1519.5317	3018.6964	3036.4303	3046.904	3076.2076	3089.0794	3090.4444	3096.4883	3101.4366	3108.0852	3116.5935	3182.2451	3191.2863	3198.1921
CC12CC1(CC2)N1CC1	C[C@]12C[C@]1(CC2)N1CC1	
InChI=1S/C8H13N/c1-7-2-3-8(7,6-7)9-4-5-9/h2-6H2,1H3	InChI=1S/C8H13N/c1-7-2-3-8(7,6-7)9-4-5-9/h2-6H2,1H3/t7-,8-/m0/s1
