19
gdb 100409	2.78515	1.07266	0.82116	3.8185	75.3	-0.2216	0.0468	0.2684	1396.2432	0.157766	-456.328716	-456.318779	-456.317835	-456.364652	36.137	
C	 0.073405872	 1.1871442971	-0.4698957147	-0.229813
O	-0.1538866254	-0.052473194	 0.1980438123	-0.252985
C	-1.3927446705	-0.5724238041	 0.0948319136	 0.492562
N	-1.4764065667	-1.7321702531	 0.8213593055	-0.563225
N	-2.3167989633	 0.0037023602	-0.5701177249	-0.368888
C	-3.5935306667	-0.6325374241	-0.6763784666	-0.036634
C	-4.7001345244	-0.2633216197	 0.3097583043	-0.336415
C	-4.6999796072	 0.2995396387	-1.0937900666	 0.125647
O	-4.3538724423	 1.6284266685	-1.3053829908	-0.435475
H	 1.1290599776	 1.412973588	-0.3134811949	 0.129089
H	-0.1473092221	 1.1019305196	-1.536983542	 0.138159
H	-0.5491834666	 1.9791001767	-0.0443396488	 0.135637
H	-0.6087251263	-2.1956074463	 1.0359319347	 0.262925
H	-2.2719876877	-2.3234641952	 0.6538588542	 0.267674
H	-3.599489585	-1.6461402823	-1.0815855512	 0.077577
H	-5.4312725648	-1.0211878586	 0.5732494458	 0.102062
H	-4.4321413132	 0.4218747319	 1.1062394465	 0.117336
H	-5.4525700904	-0.0579219225	-1.7912836089	 0.089529
H	-3.3871567669	 1.6488118791	-1.2082226775	 0.285238
21.5837	101.3734	119.1262	154.6988	196.2796	249.4793	274.6465	357.1389	373.4582	427.6778	476.8629	482.8185	528.4679	595.1566	653.7245	732.8128	771.8928	807.9334	894.4602	917.8328	1006.3448	1006.8599	1049.1863	1091.1756	1113.8443	1138.1746	1147.3598	1176.998	1182.6104	1222.6865	1236.2686	1358.4364	1372.1711	1396.2197	1434.1346	1475.242	1476.7315	1486.6421	1504.6814	1622.1593	1742.2395	3046.1975	3070.2926	3119.4962	3125.4919	3142.6352	3149.2804	3223.5889	3608.71	3657.9783	3729.8509
COC(N)=NC1CC1O	COC(=N[C@H]1C[C@H]1O)N	
InChI=1S/C5H10N2O2/c1-9-5(6)7-3-2-4(3)8/h3-4,8H,2H2,1H3,(H2,6,7)	InChI=1S/C5H10N2O2/c1-9-5(6)7-3-2-4(3)8/h3-4,8H,2H2,1H3,(H2,6,7)/t3-,4+/m0/s1
