18
gdb 61872	2.50104	0.93494	0.77402	3.8906	69.63	-0.2493	-0.0239	0.2254	1485.3338	0.144546	-476.282373	-476.27204	-476.271096	-476.319064	35.757	
C	-0.0184700531	 1.5380022528	 0.0961822766	-0.407546
C	-0.0736236666	 0.0170954583	 0.0129408847	 0.12452
C	 0.6352242499	-0.5372851428	-1.2257542132	-0.288793
C	 0.4693547102	-2.0334357991	-1.3995277616	 0.154017
O	 0.2581977632	-2.5719340581	-2.4557786303	-0.239344
O	 0.6025979477	-0.5708393584	 1.1497319367	-0.279091
C	-0.130859705	-0.6811572646	 2.2905234938	 0.499991
N	 0.6144637113	-1.2886032453	 3.2581414423	-0.561753
O	-1.2789385232	-0.3234872822	 2.4133143555	-0.397281
H	 1.0188229163	 1.887487495	 0.113889423	 0.119887
H	-0.5186023556	 1.9821073013	-0.7698250315	 0.124356
H	-0.5278976305	 1.8796937777	 0.9994808322	 0.147188
H	-1.1170378591	-0.3106054788	 0.0426639911	 0.12073
H	 0.2778430319	-0.0409163147	-2.1317996072	 0.127183
H	 1.7103944596	-0.3284297409	-1.1303036406	 0.130008
H	 0.5678763453	-2.6231714227	-0.4621693302	 0.088416
H	 1.6088003071	-1.3710863527	 3.1347075777	 0.265704
H	 0.2483864806	-1.2573802647	 4.1936404611	 0.271809
46.1456	64.6772	70.072	114.345	195.1487	201.6191	241.1149	308.496	337.2225	374.0318	451.9494	486.5672	513.2469	535.4795	665.317	774.6969	784.8872	837.4017	938.7482	961.0456	999.0034	1054.8593	1102.5349	1123.4731	1138.0112	1162.1204	1245.0219	1291.354	1337.1082	1380.9693	1401.0883	1409.066	1427.5648	1444.1825	1485.6395	1502.0588	1610.6185	1831.0286	1833.8295	2898.9078	3020.6865	3042.7998	3073.9272	3106.4987	3116.9253	3137.8479	3618.8617	3749.9824
CC(CC=O)OC(N)=O	C[C@@H](CC=O)OC(=O)N	
InChI=1S/C5H9NO3/c1-4(2-3-7)9-5(6)8/h3-4H,2H2,1H3,(H2,6,8)	InChI=1S/C5H9NO3/c1-4(2-3-7)9-5(6)8/h3-4H,2H2,1H3,(H2,6,8)/t4-/m0/s1
