22
gdb 87261	3.3406	0.74934	0.7305	3.349	84.71	-0.2306	-0.0165	0.214	1663.1322	0.191087	-404.332201	-404.321628	-404.320684	-404.368686	37.722	
C	-0.4082788949	 1.3374033625	 0.1480074727	-0.316232
N	-0.0525043034	-0.067115067	 0.2830924041	-0.105483
C	 1.2461482747	-0.4951878849	-0.2301453117	-0.302508
C	 0.9737360694	-0.4982318231	 1.2395816086	 0.336735
C	 1.7005281554	 0.4997388914	 2.1243853377	-0.467997
C	 0.6264404801	-1.8222847051	 1.909836867	-0.254457
C	-0.4799715012	-1.6810907001	 2.9725890544	-0.270778
C	-0.9523641115	-3.0260243962	 3.4690387158	 0.156414
O	-0.9570474327	-3.3798026573	 4.6201332681	-0.239744
H	 0.4440533058	 2.0334026636	 0.1700313471	 0.101
H	-0.9244739875	 1.4745559891	-0.8077017768	 0.126447
H	-1.101206882	 1.6187612462	 0.9475738146	 0.122529
H	 1.2576879587	-1.4221256056	-0.7994460413	 0.109518
H	 1.9196232067	 0.2741946654	-0.6081107446	 0.102773
H	 1.9985428266	 1.3980531159	 1.5804471332	 0.12215
H	 1.0824551227	 0.8107244897	 2.9735723069	 0.125865
H	 2.6104407167	 0.0447000185	 2.5297704101	 0.125662
H	 0.2855609078	-2.5217225773	 1.1385995335	 0.105867
H	 1.5276489052	-2.2547932587	 2.3623091744	 0.105536
H	-0.1608734941	-1.0884634513	 3.834038204	 0.117097
H	-1.3354556503	-1.1812056981	 2.4959706353	 0.12997
H	-1.3093088023	-3.7084863775	 2.6607237767	 0.069634
48.6476	69.1888	93.9602	133.1601	172.0993	179.9032	253.907	282.1262	291.2532	357.7985	455.2046	465.225	482.0247	536.3715	712.6151	771.0339	771.5558	857.9743	897.2423	928.4416	987.9871	1000.6923	1050.2517	1057.6415	1083.4898	1115.2505	1126.2959	1153.4113	1176.385	1201.3147	1219.3247	1261.0222	1281.2864	1328.1091	1362.2982	1399.9173	1417.4053	1430.5584	1451.9895	1463.1863	1481.2465	1486.6999	1489.9247	1501.442	1510.295	1517.9523	1834.9409	2846.385	2984.3735	3016.4254	3029.4618	3038.8718	3066.4854	3071.6551	3080.7685	3094.8402	3099.9008	3106.6761	3127.3808	3164.3374
CN1CC1(C)CCC=O	CN1C[C@]1(C)CCC=O	
InChI=1S/C7H13NO/c1-7(4-3-5-9)6-8(7)2/h5H,3-4,6H2,1-2H3	InChI=1S/C7H13NO/c1-7(4-3-5-9)6-8(7)2/h5H,3-4,6H2,1-2H3/t7-,8?/m0/s1
