22
gdb 121209	2.40204	0.98118	0.74205	4.161	85.12	-0.2391	0.0245	0.2636	1590.1048	0.1939	-404.369767	-404.359798	-404.358854	-404.405676	35.463	
C	 0.1072810414	 1.6919021845	-0.0817136705	-0.381033
C	 0.2228365913	 0.16872274	 0.0270357165	-0.176203
C	 0.6290830129	-0.4925467816	-1.2940054245	-0.171134
C	 0.7217654793	-2.0146450841	-1.2365863058	 0.032681
C	 1.3067856364	-2.7165050375	-2.5010248063	-0.27307
C	 2.4627564567	-3.2585403055	-1.6157077487	-0.161294
N	 1.8635830107	-2.564195972	-0.4706292775	-0.045054
C	 1.9961169053	-2.9010387583	 0.8348730728	 0.122749
O	 2.8540844878	-3.6444495157	 1.2665364526	-0.331044
H	 1.059756424	 2.1391360664	-0.3865149576	 0.118086
H	-0.6457922417	 1.9809784623	-0.8232141794	 0.114871
H	-0.1785370606	 2.1385645099	 0.8753597771	 0.116387
H	 0.9586887114	-0.0853827003	 0.7996527976	 0.108985
H	-0.7347417275	-0.2504924268	 0.3637667928	 0.095556
H	-0.1019086952	-0.2350869164	-2.0733196661	 0.098834
H	 1.5956114764	-0.0918822366	-1.627141368	 0.098591
H	-0.2373517999	-2.434294117	-0.9057199715	 0.085082
H	 0.6656063938	-3.4842060275	-2.9348216761	 0.116797
H	 1.61542516	-2.0234586272	-3.2854500968	 0.113139
H	 2.4961993909	-4.3438498889	-1.4813805007	 0.127876
H	 3.4673174571	-2.9071621169	-1.8696017784	 0.121237
H	 1.2342987895	-2.4114857508	 1.4753856984	 0.067961
67.6185	72.1734	88.8392	130.8982	162.7374	211.2078	249.9594	307.0988	328.7914	360.5101	457.8309	581.7688	739.3868	760.8201	789.5615	856.089	883.0315	915.6054	932.2981	957.0406	1033.2866	1037.5689	1048.0723	1067.0213	1119.313	1152.7255	1171.2034	1181.4318	1217.6411	1255.2265	1266.4448	1274.2806	1303.2205	1324.4096	1336.9495	1377.4543	1386.9663	1401.3755	1414.3409	1432.489	1475.1416	1490.3684	1492.2005	1500.3767	1509.0702	1522.421	1786.0627	2924.6185	3009.1041	3014.1822	3020.0301	3031.451	3045.0481	3049.4238	3064.9578	3085.4446	3091.5915	3098.8097	3105.6028	3141.5095
CCCC1CCN1C=O	CCC[C@H]1CCN1C=O	
InChI=1S/C7H13NO/c1-2-3-7-4-5-8(7)6-9/h6-7H,2-5H2,1H3	InChI=1S/C7H13NO/c1-2-3-7-4-5-8(7)6-9/h6-7H,2-5H2,1H3/t7-/m0/s1
