19
gdb 84999	2.26006	1.53451	0.96267	3.1834	80.77	-0.233	-0.0369	0.1961	1226.7567	0.157256	-423.078371	-423.068577	-423.067633	-423.113563	35.115	
C	 0.0331853074	 1.4733884834	 0.1641494101	-0.495715
C	 0.0299704035	-0.0088527764	-0.0078761662	 0.230881
C	 0.0072352514	-0.7258860066	-1.1470219029	 0.09409
C	-0.0560710545	-0.2709366507	-2.5695406708	-0.500647
C	 0.0364220637	-2.1754651012	-0.8321304581	 0.338652
O	-0.0687561037	-3.079992369	-1.6298960298	-0.330691
C	 0.215135588	-2.3192884784	 0.6822026437	-0.373697
C	 0.0359606828	-0.8921182666	 1.2276803284	 0.020097
O	 1.0751144726	-0.4465338374	 2.0936618435	-0.433185
H	 0.9127782526	 1.7767225941	 0.7415081766	 0.158238
H	 0.0338450919	 2.0054578431	-0.7890181955	 0.126909
H	-0.8419806807	 1.7973419899	 0.7420397022	 0.131742
H	 0.8961128071	-0.4578749174	-3.079483667	 0.141209
H	-0.8121751921	-0.8482566234	-3.1111561696	 0.146655
H	-0.2885971163	 0.7922834793	-2.6603196015	 0.120675
H	-0.4784037864	-3.0590425673	 1.0900561612	 0.120157
H	 1.2350021084	-2.6612126458	 0.8879645517	 0.136666
H	-0.9364757332	-0.7919218024	 1.7386787789	 0.079541
H	 0.9979933377	-0.9271013074	 2.9235704651	 0.288423
55.1236	75.8485	110.216	139.2803	230.0946	268.6581	270.7401	292.7703	343.8286	412.2497	512.4773	545.4902	574.0703	595.1304	660.8154	719.3273	837.2296	920.7478	955.6616	1010.3858	1041.5014	1058.4817	1069.6369	1095.9449	1125.1312	1170.1705	1197.4886	1226.3844	1258.075	1323.6216	1349.398	1409.7491	1412.0788	1418.8104	1452.3744	1472.3902	1474.05	1483.2072	1485.8248	1714.638	1806.9542	2954.9712	3028.3372	3038.2145	3058.2491	3085.9975	3091.6753	3110.307	3126.9891	3132.5026	3824.3081
CC1=C(C)C(=O)CC1O	CC1=C(C)C(=O)C[C@H]1O	
InChI=1S/C7H10O2/c1-4-5(2)7(9)3-6(4)8/h6,8H,3H2,1-2H3	InChI=1S/C7H10O2/c1-4-5(2)7(9)3-6(4)8/h6,8H,3H2,1-2H3/t6-/m1/s1
