19
gdb 54248	2.81254	1.30665	1.18232	2.9139	77.53	-0.2385	-0.0208	0.2177	1146.3823	0.157551	-423.058278	-423.049033	-423.048088	-423.092773	34.328	
C	 0.0478215817	 1.5091297833	-0.0409345681	-0.471906
C	 0.0643982209	-0.0042523305	-0.0102011913	 0.364636
O	 1.0918375381	-0.6381549611	 0.0486462693	-0.307608
C	-1.3063477318	-0.7184286994	-0.0180664617	 0.258618
O	-2.2037772535	 0.1498723749	-0.7192117133	-0.475231
C	-1.2285774779	-2.1536067865	-0.6066445459	-0.2753
C	-1.9454176376	-3.0897846167	 0.3987219948	-0.268483
C	-2.1469049069	-2.2186513295	 1.6108759369	-0.059915
C	-1.7813927197	-0.9542703955	 1.4048555256	-0.14092
H	 1.0570754084	 1.8855545359	 0.129072251	 0.131579
H	-0.3236227388	 1.8486589135	-1.0124819579	 0.158493
H	-0.6445805256	 1.9108087843	 0.7051841314	 0.135648
H	-3.0990623288	-0.1385756794	-0.5125370013	 0.276468
H	-1.6774170904	-2.1652470587	-1.6022242842	 0.105788
H	-0.1772289192	-2.4302370621	-0.7010549819	 0.13794
H	-2.9059370662	-3.4688217293	 0.0249245577	 0.10779
H	-1.3441494945	-3.9760819012	 0.6316061826	 0.118801
H	-2.5589640714	-2.5985716169	 2.5402798994	 0.102965
H	-1.8487907866	-0.145105975	 2.123576057	 0.100636
48.9321	64.3194	156.8151	184.5541	262.1609	278.0547	322.3564	351.6416	411.4636	456.5074	550.814	588.4327	612.2284	738.7013	757.5747	795.1816	823.5906	908.1966	929.6036	964.0515	977.4669	999.3908	1009.3747	1042.0632	1092.6808	1115.5925	1158.6819	1186.2891	1208.7551	1247.7847	1288.129	1317.9476	1363.6891	1376.8529	1384.7212	1455.4885	1467.3827	1474.1745	1493.0797	1676.7214	1812.617	3020.6808	3050.4913	3056.34	3079.1723	3114.3164	3132.5576	3156.4315	3178.5521	3205.0865	3809.2724
CC(=O)C1(O)CCC=C1	CC(=O)[C@@]1(O)CCC=C1	
InChI=1S/C7H10O2/c1-6(8)7(9)4-2-3-5-7/h2,4,9H,3,5H2,1H3	InChI=1S/C7H10O2/c1-6(8)7(9)4-2-3-5-7/h2,4,9H,3,5H2,1H3/t7-/m0/s1
