21
gdb 88388	2.36978	1.24314	1.08887	3.9874	79.14	-0.2352	-0.0107	0.2245	1236.6012	0.179449	-424.217819	-424.207621	-424.206677	-424.252651	37.999	
C	 0.0946258589	 1.5430959645	 0.0300923802	-0.413925
C	 0.0044236254	 0.0117702235	 0.0946383934	 0.150829
C	 0.6293813415	-0.5004891097	 1.4089366656	-0.449115
C	-1.4595195045	-0.4342913562	 0.0792321771	 0.142251
O	-2.4056420976	 0.3044057321	-0.0257883366	-0.26049
C	 0.6380588854	-0.583557638	-1.1757960142	-0.034613
C	 2.0349314214	-1.1772435379	-1.2408515525	-0.349601
C	 0.8262306708	-2.049287976	-1.4626122177	 0.078851
O	 0.4406803515	-2.9725583783	-0.4814471566	-0.410944
H	 1.1407384713	 1.8600529189	-0.0230511404	 0.108744
H	-0.434146606	 1.9328655138	-0.8435112072	 0.124122
H	-0.3607029382	 1.9959131639	 0.9150388251	 0.120071
H	 0.0974568791	-0.0735769168	 2.2654399154	 0.120066
H	 0.5918957003	-1.5885208712	 1.4781286066	 0.139502
H	 1.6741986465	-0.1826623248	 1.4808295165	 0.118786
H	-1.5917749305	-1.534343504	 0.166571408	 0.098345
H	 0.3504117563	-0.0161565934	-2.0576111258	 0.098376
H	 2.6735044289	-0.9252515876	-2.0806565405	 0.114706
H	 2.5571243074	-1.3188407425	-0.3013978992	 0.119995
H	 0.6169510861	-2.3744547472	-2.4815129912	 0.092822
H	 1.0599754961	-3.7099260329	-0.5044870059	 0.291221
73.0214	76.6742	172.3645	205.8065	244.7635	260.3238	276.9259	287.1131	307.9868	348.7782	369.0524	384.7961	452.7952	567.3123	644.5131	725.2896	792.2236	838.0388	868.8811	911.3712	955.5036	976.644	1012.3636	1027.8565	1057.9304	1065.0209	1089.7697	1141.672	1180.9067	1186.6085	1227.6945	1253.5401	1265.6414	1300.8976	1379.4324	1396.0529	1408.4261	1422.3579	1433.136	1483.5398	1486.0031	1490.9799	1505.4175	1516.5573	1823.7792	2909.7201	3039.2727	3044.2188	3098.6721	3101.5482	3115.5976	3121.1483	3133.2809	3137.7883	3145.1578	3225.5194	3801.2911
CC(C)(C=O)C1CC1O	CC(C)(C=O)[C@H]1C[C@H]1O	
InChI=1S/C7H12O2/c1-7(2,4-8)5-3-6(5)9/h4-6,9H,3H2,1-2H3	InChI=1S/C7H12O2/c1-7(2,4-8)5-3-6(5)9/h4-6,9H,3H2,1-2H3/t5-,6+/m0/s1
