19
gdb 56325	6.62746	0.49231	0.46864	2.3897	74.73	-0.2568	-0.0268	0.23	2243.0789	0.155412	-460.213278	-460.202497	-460.201553	-460.251998	35.297	
C	-0.1708658799	 1.4692039546	 0.077092908	-0.478554
C	 0.0720048964	-0.020409418	 0.0624488902	 0.425658
O	 1.1473024607	-0.5608387825	 0.1098989403	-0.34634
O	-1.0978861987	-0.6942684499	-0.0139346041	-0.242361
C	-0.9897747282	-2.127193305	-0.0439098154	-0.056372
C	-2.4000207035	-2.6897475274	-0.1281505581	-0.218279
C	-2.3969933587	-4.2265975891	-0.1770302877	-0.277333
C	-3.8006231136	-4.7891437166	-0.132853339	 0.160642
O	-4.265036597	-5.5514848811	-0.9390971652	-0.232118
H	 0.78208148	 1.9908142973	 0.1549241199	 0.149997
H	-0.6887192166	 1.7729101193	-0.8371873947	 0.151122
H	-0.8149535163	 1.7375884612	 0.9191583574	 0.14991
H	-0.3811877976	-2.425887663	-0.9039264005	 0.125785
H	-0.4705078936	-2.4702971016	 0.8576281075	 0.122091
H	-2.9760682295	-2.3420587056	 0.7379027766	 0.11562
H	-2.8952376221	-2.2883472381	-1.0193122776	 0.125007
H	-1.8969746501	-4.6057732131	-1.0729109572	 0.128315
H	-1.8613866866	-4.6160509538	 0.7017223752	 0.124319
H	-4.4059965351	-4.4327879776	 0.7344417645	 0.072892
32.2103	48.9417	57.3877	86.3125	90.0671	117.7471	194.911	233.892	272.6057	396.9998	449.2261	530.1549	606.2132	645.9607	754.8791	810.0484	905.1402	929.9691	974.7149	1010.2947	1051.2391	1064.7085	1073.8263	1119.9768	1152.7515	1217.6112	1260.9905	1267.0524	1290.5131	1316.2152	1358.8752	1391.2273	1421.8053	1431.3233	1465.7525	1469.4446	1475.8317	1497.0002	1518.3893	1826.8436	1840.6759	2851.6929	3009.184	3035.3525	3045.6247	3057.5851	3070.0688	3091.4175	3104.6747	3122.1529	3170.4068
CC(=O)OCCCC=O	CC(=O)OCCCC=O	
InChI=1S/C6H10O3/c1-6(8)9-5-3-2-4-7/h4H,2-3,5H2,1H3	InChI=1S/C6H10O3/c1-6(8)9-5-3-2-4-7/h4H,2-3,5H2,1H3
