19
gdb 98082	3.21028	1.06145	0.87488	2.4603	76.1	-0.2264	-0.0216	0.2048	1381.0946	0.157176	-456.362529	-456.351915	-456.35097	-456.399027	36.071	
C	 0.859232973	 1.0871578259	 0.5551579112	-0.237644
O	 0.4906988503	-0.2110717063	 0.0717749239	-0.200561
C	 1.3996282304	-0.8064299489	-0.7041165143	 0.402276
O	 2.4438383947	-0.3004693434	-1.0400047141	-0.374195
C	 0.9674983532	-2.219568387	-1.0760742553	 0.271958
N	 0.4450842302	-2.901839256	-0.1263493222	-0.520124
N	 1.3087888669	-2.6456188843	-2.3408473225	-0.081597
C	 1.0726248281	-4.0379857115	-2.6700152005	-0.350915
C	 1.4111513262	-1.7440776934	-3.4811122237	-0.349494
H	 1.7548215342	 1.023549198	 1.1782404504	 0.144503
H	 1.0576024415	 1.7677860231	-0.2768630891	 0.137773
H	 0.0092088196	 1.4338208861	 1.1420352646	 0.138049
H	 0.2152924775	-3.8512105456	-0.4182921571	 0.212794
H	 0.0042133687	-4.2757455851	-2.7918916155	 0.123841
H	 1.5808394239	-4.2686370485	-3.6090913805	 0.13159
H	 1.4848354548	-4.6881852384	-1.8924372885	 0.141941
H	 2.2080244366	-2.087594115	-4.1489760317	 0.12952
H	 0.4743368552	-1.7108669109	-4.0570775396	 0.115372
H	 1.6638131351	-0.7396913086	-3.1514294057	 0.164914
42.0089	82.4111	117.2682	124.6433	141.8692	195.0962	199.0687	231.6831	292.7797	352.8331	374.2226	407.9037	463.7346	608.9341	682.4719	811.8108	827.6259	854.873	910.8351	1022.7403	1082.8526	1102.8203	1126.6415	1170.1571	1177.3334	1202.6429	1227.7769	1279.6755	1319.8442	1426.3202	1447.1059	1471.0303	1479.6904	1482.2555	1488.8068	1493.59	1495.7816	1511.3561	1526.8531	1675.4363	1801.3701	2984.0948	2994.5331	3051.9815	3071.221	3074.0668	3121.0652	3126.2871	3163.6894	3184.7678	3486.5174
COC(=O)C(=N)N(C)C	COC(=O)C(=N)N(C)C	
InChI=1S/C5H10N2O2/c1-7(2)4(6)5(8)9-3/h6H,1-3H3	InChI=1S/C5H10N2O2/c1-7(2)4(6)5(8)9-3/h6H,1-3H3
