17
gdb 76460	1.81752	1.48744	1.15515	2.9699	71.63	-0.2454	-0.0322	0.2132	1157.3464	0.132564	-458.968207	-458.958619	-458.957675	-459.002645	34.121	
C	-0.2326122839	 1.4090192302	-0.0333370114	-0.427661
C	 0.0778851336	-0.0680099494	 0.0642576249	-0.067456
C	 1.3744858441	-0.6257258372	-0.3221247887	 0.068523
O	 2.3516932089	 0.2564217555	-0.7441766942	-0.401666
C	 0.9694930316	-0.6529387006	 1.2046712287	 0.027326
C	 1.6872521225	 0.2450234358	 2.1363799126	 0.088172
O	 1.9138066472	-0.031180349	 3.2933075715	-0.273925
C	 0.5657425212	-1.9864472958	 1.7122701605	 0.081523
O	-0.041147248	-2.7948468599	 1.0420071081	-0.288656
H	 0.6656976748	 2.0252609736	 0.0191700643	 0.14542
H	-0.7130169531	 1.611333733	-0.9959839757	 0.136602
H	-0.9217660171	 1.719646694	 0.7569524612	 0.134054
H	-0.758522018	-0.7391606139	-0.1136672845	 0.134051
H	 1.3926534853	-1.623594388	-0.7573591424	 0.131466
H	 3.2112801902	-0.1713890787	-0.6682549737	 0.304292
H	 2.03141535	 1.2057230121	 1.7046250822	 0.090792
H	 0.8740896508	-2.1999614117	 2.7520465366	 0.117143
76.0838	117.935	178.8334	186.3841	208.205	217.4589	237.1432	261.489	354.3752	385.8798	427.84	534.8726	590.8583	654.7099	689.2032	767.7589	867.3521	972.8635	1009.4919	1014.744	1054.3506	1076.091	1124.6981	1145.8592	1193.8844	1253.0563	1261.7203	1310.1807	1374.6228	1412.7423	1416.8356	1445.2337	1481.7833	1494.8682	1512.6601	1781.4905	1794.529	2930.3108	2974.2791	3049.2911	3109.4789	3126.767	3139.9883	3156.6576	3813.8649
CC1C(O)C1(C=O)C=O	C[C@H]1[C@@H](O)C1(C=O)C=O	
InChI=1S/C6H8O3/c1-4-5(9)6(4,2-7)3-8/h2-5,9H,1H3	InChI=1S/C6H8O3/c1-4-5(9)6(4,2-7)3-8/h2-5,9H,1H3/t4-,5+/m0/s1
