15
gdb 126790	4.76749	0.95487	0.85184	4.9236	75.97	-0.2777	-0.0433	0.2344	1327.9425	0.114515	-413.01415	-413.006105	-413.005161	-413.047879	28.35	
C	-0.0236586483	 1.5388067067	 0.0236351455	-0.383436
C	-0.0265294801	 0.0116309308	-0.0222817838	-0.133488
N	-1.3802923949	-0.5357620455	 0.0012944623	 0.144187
N	-2.039435115	-0.7308714694	 1.1414377939	-0.209057
C	-3.2333011128	-1.1648717544	 0.7478480167	-0.134454
C	-3.2449609122	-1.2099089744	-0.6581266306	 0.221133
N	-2.0462331341	-0.7984378345	-1.1059587322	-0.28499
C	-4.2890383803	-1.6129618448	-1.5302740625	 0.233881
N	-5.1641692349	-1.9476783331	-2.2090582935	-0.330383
H	 1.0070663065	 1.9038650539	 0.0092291895	 0.133546
H	-0.5497119233	 1.9531399462	-0.8404269697	 0.145738
H	-0.5059185575	 1.8988119746	 0.9359866008	 0.14625
H	 0.4369256501	-0.3613942414	-0.9369303457	 0.151092
H	 0.4933651474	-0.4121737431	 0.839042597	 0.147926
H	-4.0057006806	-1.4249360717	 1.4526726422	 0.152055
38.3982	110.5619	152.5447	195.8844	230.5915	375.3203	390.8152	525.3482	561.1726	574.8757	702.6217	716.109	728.7422	800.2029	890.8816	974.9305	1024.2351	1048.7084	1102.6617	1119.3574	1198.4925	1260.7377	1344.8073	1379.5343	1388.8073	1402.321	1414.2095	1424.2924	1476.9598	1490.3072	1505.2628	1524.8946	2360.4732	3051.0601	3088.6222	3126.4754	3128.9421	3152.4885	3283.7927
CCN1N=CC(=N1)C#N	CCn1ncc(n1)C#N	
InChI=1S/C5H6N4/c1-2-9-7-4-5(3-6)8-9/h4H,2H2,1H3	InChI=1S/C5H6N4/c1-2-9-7-4-5(3-6)8-9/h4H,2H2,1H3
