16
gdb 47116	3.24888	1.19353	0.9045	3.0591	82.2	-0.2434	-0.0348	0.2086	1237.4721	0.124019	-400.735344	-400.727005	-400.726061	-400.769088	30.824	
N	-0.2577590606	 1.2863514479	-0.2286801104	-0.512076
C	-0.0465126186	 0.0797437218	 0.0903185151	 0.391068
C	-1.1319568833	-0.9594495951	-0.0790236132	-0.394597
C	-1.0431442104	-2.0786771758	 0.9393244542	 0.144551
C	 0.1637715836	-2.4199081597	 1.4059652092	-0.171743
C	 1.3867636769	-1.6886913678	 0.9506304753	-0.125449
O	 1.1541949909	-0.3222494175	 0.5907513011	-0.245649
C	-2.2417746245	-2.736671943	 1.3200300677	 0.214293
C	-3.2865653542	-3.2616634117	 1.6100579348	-0.397371
H	 0.5831458986	 1.844504021	-0.0668701926	 0.218702
H	-2.092940206	-0.446879846	-0.0382858516	 0.157156
H	-1.0519334119	-1.3887583605	-1.0882296788	 0.146747
H	 0.2931749747	-3.2376844489	 2.1057741445	 0.112424
H	 2.1386987025	-1.6542716325	 1.7450359399	 0.134139
H	 1.8508407441	-2.2043550828	 0.0943491596	 0.12763
H	-4.1992923917	-3.7349254994	 1.8759830253	 0.200176
45.9942	97.2723	149.402	165.5834	355.0341	399.953	425.8616	471.4975	550.0039	553.2887	578.4086	608.4221	645.095	701.294	814.1459	838.3653	901.3017	905.8747	956.7501	989.564	1030.6905	1062.7971	1156.5719	1168.7593	1216.3074	1254.0389	1296.6002	1313.1311	1355.0182	1428.6417	1461.6678	1500.449	1704.8314	1748.9923	2223.5287	2976.2158	3012.6148	3075.3785	3133.6945	3198.4039	3464.0497	3502.5475
N=C1CC(=CCO1)C#C	[NH][C]1CC(=CCO1)C#C	
InChI=1S/C7H7NO/c1-2-6-3-4-9-7(8)5-6/h1,3,8H,4-5H2	InChI=1S/C7H7NO/c1-2-6-3-4-9-7(8)5-6/h1,3,8H,4-5H2
