19
gdb 68767	2.50712	1.72251	1.22	3.7886	77.33	-0.2407	0.024	0.2647	1069.7736	0.159545	-419.21353	-419.204853	-419.203909	-419.246368	33.133	
C	-0.029118726	 1.5371729886	 0.0180093335	-0.49999
C	 0.121663887	 0.04070985	 0.0024959265	 0.250332
C	 0.4451758854	-0.6609787174	-1.3065089132	-0.121808
O	 1.0783509659	-1.9032297546	-0.9556675144	-0.252925
C	 1.3885296349	-1.9424150768	 0.3736398834	 0.427426
N	 2.1245152211	-2.8076777328	 0.9250298151	-0.555885
C	 0.7408370033	-0.7902743718	 1.0731375954	 0.168904
C	 1.3054230077	-0.3275628208	 2.3850115381	-0.490039
N	-0.7360282346	-0.8316998566	 0.8278509866	-0.39756
H	 0.8431947201	 2.028569629	-0.4257999422	 0.131265
H	-0.912659729	 1.8453837904	-0.5526461738	 0.134296
H	-0.1453076626	 1.9137496351	 1.0385613186	 0.125846
H	-0.4496782778	-0.8889221699	-1.893088428	 0.123804
H	 1.1401721912	-0.0706742058	-1.916412435	 0.107873
H	 2.4748807206	-3.4747619956	 0.2352592735	 0.222458
H	 2.3658190793	-0.0780587573	 2.2873623231	 0.137179
H	 0.774170865	 0.5520205732	 2.7609738374	 0.108638
H	 1.2261079986	-1.1277362683	 3.1263234033	 0.153455
H	-1.1785996401	-0.2636108084	 1.5502667019	 0.226733
124.1072	162.0894	188.2918	197.0524	225.9435	274.4052	312.2384	383.7184	456.9014	502.9161	533.1089	649.895	668.0164	707.8125	772.6205	847.7441	896.1605	899.0495	949.8884	988.6284	1006.0471	1044.9675	1074.5559	1083.6933	1114.2456	1133.718	1156.6948	1234.6054	1244.3362	1310.3188	1387.0698	1391.2641	1422.1695	1424.403	1452.4482	1474.4327	1489.9886	1492.1624	1504.2775	1509.8712	1778.9317	3026.8804	3032.3459	3043.0036	3088.5116	3092.6395	3107.9123	3115.326	3117.5402	3464.591	3472.4272
CC12COC(=N)C1(C)N2	C[C@@]12CO[C]([NH])[C@]1(C)N2	
InChI=1S/C6H10N2O/c1-5-3-9-4(7)6(5,2)8-5/h7-8H,3H2,1-2H3	InChI=1S/C6H10N2O/c1-5-3-9-4(7)6(5,2)8-5/h7-8H,3H2,1-2H3/t5-,6+/m1/s1
