23
gdb 39328	2.66374	1.70745	1.27389	0.2003	88.05	-0.249	0.0871	0.3361	1090.5715	0.209891	-351.179249	-351.171616	-351.170671	-351.211115	31.77	
C	-0.0657607475	 1.4218413216	 0.0585752009	-0.385301
C	 1.3225648541	 0.8182832748	 0.0214081232	-0.062288
C	 2.0647973331	 0.5782381369	 1.3276720031	-0.21715
C	 1.0524804149	-0.1676077956	 2.2352192246	-0.256125
C	 0.0780718195	-0.8813410602	 1.2753241365	-0.031964
C	 0.4899832765	-2.2738077996	 0.7600611275	-0.215827
C	-0.2610421909	-2.4088571787	-0.5816668597	-0.202748
C	-0.2981120939	-0.9730318898	-1.1849138582	-0.318378
C	 0.0941799215	-0.0685052066	-0.0217210091	 0.40096
H	-0.4341591355	 1.8673600077	 0.9789859051	 0.10159
H	-0.3935033183	 1.9393868309	-0.8379607715	 0.105237
H	 1.9059163826	 0.9809178194	-0.8798826556	 0.07349
H	 2.9418078902	-0.0495158936	 1.1295646501	 0.096964
H	 2.4351729648	 1.496627466	 1.7969912518	 0.093614
H	 1.543380844	-0.8593563378	 2.9266649271	 0.09472
H	 0.5030235955	 0.5503220447	 2.8526446988	 0.098603
H	-0.9278333904	-0.9443246855	 1.7112477762	 0.059268
H	 1.574055288	-2.2953494597	 0.5897138911	 0.094098
H	 0.2553669666	-3.0803193925	 1.4615322569	 0.087637
H	 0.2015947048	-3.1373414691	-1.2532668299	 0.093098
H	-1.2831685979	-2.7564525898	-0.394407368	 0.098227
H	 0.3986389339	-0.8675369214	-2.0235177349	 0.096077
H	-1.2946339055	-0.7359462119	-1.572678116	 0.096199
94.1991	181.5462	207.7973	303.8494	343.9397	387.5041	495.6671	538.1078	614.8245	657.787	742.1688	788.0926	803.1684	815.8528	856.7317	877.9761	896.981	928.1469	943.343	958.5293	995.0974	1003.9442	1019.1463	1050.5047	1056.356	1078.142	1094.1166	1120.5576	1158.2979	1196.897	1205.9888	1215.7358	1243.3615	1248.9746	1276.2027	1294.0399	1305.4728	1326.5578	1331.4874	1342.8629	1353.0741	1364.2644	1405.9477	1484.3504	1487.7336	1489.9179	1494.214	1507.4129	1510.986	3009.3216	3026.8555	3029.9683	3033.0615	3042.0401	3047.255	3062.5154	3065.8372	3081.2127	3087.2215	3094.8375	3110.6149	3149.8549	3193.1589
C1C2CCC3CCCC123	C1[C@H]2CC[C@@H]3CCC[C@]123	
InChI=1S/C9H14/c1-2-7-3-4-8-6-9(7,8)5-1/h7-8H,1-6H2	InChI=1S/C9H14/c1-2-7-3-4-8-6-9(7,8)5-1/h7-8H,1-6H2/t7-,8+,9+/m0/s1
