21
gdb 92215	3.03381	1.69125	1.54997	1.5539	80.55	-0.2306	0.0862	0.3169	978.018	0.185976	-387.087186	-387.080192	-387.079248	-387.118185	29.668	
C	-0.2424070071	 1.5671953728	-0.0217669385	-0.401712
C	 0.0020183692	 0.0552861799	-0.0205428574	 0.012031
C	 0.8610520574	-0.4543887437	-1.2264652374	-0.235884
C	 2.1549527233	-0.8973325772	-0.5433059601	 0.102873
O	 2.7259290767	 0.299932686	 0.0577892396	-0.295701
C	 2.2267275882	 0.1758324655	 1.4005370851	 0.093991
C	 2.7308259067	-1.224940619	 1.8138780171	-0.243866
C	 1.7060026329	-1.6510367074	 0.7347876201	-0.080699
C	 0.8075395897	-0.4512600526	 1.1881361866	-0.029062
H	 0.7058321393	 2.1108285375	-0.059563222	 0.132855
H	-0.8371066119	 1.8679711623	-0.8908564645	 0.109213
H	-0.7855779788	 1.8837150018	 0.8758585878	 0.10513
H	-0.969794962	-0.4520995163	-0.023566015	 0.067348
H	 0.3796829597	-1.2941088633	-1.7412893336	 0.08846
H	 1.055901133	 0.3271953605	-1.9661264931	 0.102975
H	 2.8987913566	-1.3818800164	-1.1794741224	 0.06786
H	 2.4241412798	 1.0904807388	 1.9582871321	 0.075012
H	 3.7914469386	-1.4316396106	 1.652713264	 0.097682
H	 2.4208456006	-1.5233466861	 2.8177626069	 0.097349
H	 1.3344214146	-2.6684887374	 0.6147071391	 0.067732
H	 0.2505818635	-0.5991272252	 2.1142740155	 0.066415
135.2663	238.1813	245.2123	368.9109	404.5091	447.2549	486.3258	603.8557	658.9927	750.4371	806.1225	826.5711	840.8941	865.5149	881.7449	918.6917	931.4403	940.1652	954.4513	979.8524	1005.393	1016.8166	1042.662	1066.3926	1070.1041	1109.0192	1115.9458	1131.4146	1189.9276	1214.2561	1228.0391	1241.373	1247.3935	1264.0325	1285.9258	1302.5238	1331.1988	1350.8682	1353.3581	1369.6299	1407.0171	1481.0526	1487.7361	1495.9701	1508.0804	3022.8262	3029.2212	3041.1211	3064.3707	3089.4184	3090.4122	3096.3924	3105.8021	3114.5548	3120.3604	3127.6837	3131.3782
CC1CC2OC3CC2C13	C[C@H]1C[C@H]2O[C@@H]3C[C@H]2[C@H]13	
InChI=1S/C8H12O/c1-4-2-6-5-3-7(9-6)8(4)5/h4-8H,2-3H2,1H3	InChI=1S/C8H12O/c1-4-2-6-5-3-7(9-6)8(4)5/h4-8H,2-3H2,1H3/t4-,5+,6+,7+,8-/m0/s1
