21
gdb 116868	3.73578	0.55927	0.51004	0.7823	94.96	-0.2457	0.042	0.2878	2235.7101	0.179083	-349.902892	-349.891635	-349.890691	-349.941801	39.488	
C	 0.1589803355	 1.6333986187	-0.038926291	-0.381622
C	 0.2433249252	 0.1066480916	-0.0844351335	-0.153545
C	 0.4032556151	-0.5135662845	 1.3188028362	-0.335572
C	 0.4821322693	-1.9700990489	 1.300430998	 0.005088
C	 0.5343372068	-3.1720329984	 1.2541982742	 0.157687
C	 0.6263663587	-4.6364566488	 1.2198539612	-0.321984
C	 1.6958979373	-5.1591346372	 2.2121723849	-0.375504
C	-0.6756769969	-5.2656511572	 1.472680025	 0.347865
C	-1.7265786512	-5.805194921	 1.6903789854	-0.473787
H	 1.0615341373	 2.0687083976	 0.4046734535	 0.115238
H	 0.0463195937	 2.0531200724	-1.043001082	 0.11479
H	-0.696718428	 1.9664021878	 0.559079649	 0.116217
H	-0.655908914	-0.3079380033	-0.5533533994	 0.110808
H	 1.0882763269	-0.2065147841	-0.7079084647	 0.107412
H	 1.3032812263	-0.1022009461	 1.7958657006	 0.123939
H	-0.4394883004	-0.2018436446	 1.9507380088	 0.127151
H	 0.9441424671	-4.9319982574	 0.2090110914	 0.133068
H	 1.7736905572	-6.2470182811	 2.1413459191	 0.12512
H	 2.6663619707	-4.7135173091	 1.9801847087	 0.124503
H	 1.4237951105	-4.8927989735	 3.2358449405	 0.136474
H	-2.6621907771	-6.2711636628	 1.877065494	 0.196652
8.3909	65.1046	76.0491	109.0719	170.1181	196.3662	231.5915	238.2882	286.0067	307.0783	359.4732	470.762	473.9866	551.9445	568.8174	628.3912	641.2161	743.0992	748.2201	860.8106	872.0515	896.943	997.2725	1041.6112	1070.7231	1090.3946	1108.6323	1122.2975	1182.6813	1259.2885	1300.0201	1306.1459	1322.0999	1325.1306	1382.2706	1401.894	1412.2806	1473.0938	1488.6974	1492.1178	1496.6587	1498.1777	1509.1891	2240.3327	2369.692	2994.5727	3009.437	3029.5595	3036.0307	3041.9257	3050.3528	3073.488	3100.1737	3105.6646	3130.5417	3137.2033	3505.0408
CCCC#CC(C)C#C	CCCC#C[C@@H](C)C#C	
InChI=1S/C9H12/c1-4-6-7-8-9(3)5-2/h2,9H,4,6H2,1,3H3	InChI=1S/C9H12/c1-4-6-7-8-9(3)5-2/h2,9H,4,6H2,1,3H3/t9-/m0/s1
