20
gdb 107215	3.69922	1.22182	1.09172	1.9635	77.92	-0.218	0.0665	0.2844	1162.0912	0.172361	-403.101395	-403.093331	-403.092386	-403.133936	31.88	
O	-0.0294713297	 1.3454955346	 0.449093587	-0.422497
C	-0.0120163425	 0.0036216566	-0.0258615257	-0.181486
C	-1.425932802	-0.5057917992	-0.0396075213	 0.381108
C	-2.0070609439	-1.1097365045	 1.2129490997	-0.339314
C	-1.7533145462	-1.9877819143	 0.0107924132	-0.109352
C	-2.846846986	-2.2318903426	-1.0041780445	-0.025027
C	-4.1902664019	-1.6216794009	-0.8326414718	-0.253627
N	-3.1937977034	-0.9671423232	-1.690527154	-0.096162
C	-2.3997172759	 0.1126007431	-1.0538851709	-0.248524
H	 0.8521880992	 1.7140386717	 0.3385655688	 0.286599
H	 0.4103445457	-0.0453189982	-1.0428382399	 0.087508
H	 0.6067663204	-0.6403657003	 0.6201177247	 0.08094
H	-1.3322739396	-1.2297455819	 2.0552687483	 0.111628
H	-3.0219416921	-0.8687111228	 1.5059949392	 0.114067
H	-0.9675960071	-2.7325561076	 0.0754261941	 0.084896
H	-2.7326005064	-3.1100376148	-1.6344957259	 0.087619
H	-5.0445852196	-2.0303185638	-1.3674664743	 0.111004
H	-4.446699402	-1.1718466346	 0.1223776163	 0.109842
H	-3.0610945755	 0.8639057891	-0.6096987907	 0.112223
H	-1.8274731717	 0.6138643037	-1.8416020926	 0.108556
83.4638	133.0187	231.1596	269.3128	275.8566	360.5012	374.4704	431.9195	514.4531	632.9722	685.1375	725.3381	761.102	816.3711	858.6999	898.7459	933.6747	955.1061	956.6131	997.6463	1010.307	1042.3962	1061.3514	1067.7836	1085.4401	1099.732	1114.1096	1124.4942	1153.1751	1222.7101	1226.9496	1237.4163	1274.2427	1282.7236	1319.5878	1339.2674	1378.7088	1405.7828	1464.6172	1488.8525	1498.414	1514.5414	1525.0481	2958.0231	2988.2461	3041.9299	3078.3088	3102.5329	3129.6488	3135.6688	3171.224	3182.3545	3212.9495	3823.6455
OCC12CC1C1CN1C2	OC[C@]12C[C@H]1[C@H]1CN1C2	
InChI=1S/C7H11NO/c9-4-7-1-5(7)6-2-8(6)3-7/h5-6,9H,1-4H2	InChI=1S/C7H11NO/c9-4-7-1-5(7)6-2-8(6)3-7/h5-6,9H,1-4H2/t5-,6+,7+,8?/m0/s1
