16
gdb 29982	3.39111	1.66255	1.12351	2.6197	78.33	-0.1843	0.0177	0.2021	1033.37	0.12672	-400.784033	-400.77666	-400.775716	-400.816594	27.947	
C	-0.0140895788	 1.4633860639	-0.003571769	-0.34492
N	-0.010925973	 0.0183931652	 0.0125441048	-0.135367
C	-0.0556458527	-0.8082631299	-1.0987482447	-0.07885
C	-0.0377994929	-2.1404537791	-0.7237682517	-0.360636
C	 0.0207080906	-2.1005232132	 0.6868817039	 0.343
C	 0.0365134363	-0.7893606406	 1.1218783937	 0.269406
C	 0.0958233607	-0.8194190001	 2.5491733988	-0.353606
C	 0.1109097177	-2.1497633696	 2.8574075136	-0.011003
O	 0.0660826505	-2.954658728	 1.7441428564	-0.210677
H	 0.8943493566	 1.8664998719	 0.4578939456	 0.138238
H	-0.0575818157	 1.8079819275	-1.0383758864	 0.140495
H	-0.8825822131	 1.8634465184	 0.531577041	 0.138238
H	-0.0973842307	-0.3737229492	-2.0853880836	 0.118096
H	-0.063810677	-2.989711573	-1.3861784734	 0.108457
H	 0.1238605197	-0.0073176372	 3.2579804951	 0.109235
H	 0.1508669619	-2.6729266869	 3.7984481059	 0.129896
36.7953	152.0683	215.7971	259.6755	353.0609	522.3695	574.6743	593.8021	615.5061	679.4739	692.8146	708.7536	748.367	776.2299	791.0184	806.1693	917.4445	1021.2893	1041.8312	1084.4321	1111.8181	1152.3156	1169.5127	1222.5088	1263.4464	1334.8434	1375.3869	1449.1163	1463.4877	1480.5926	1495.9362	1515.7755	1528.9048	1569.3341	1593.1095	3026.6682	3079.7483	3133.8622	3252.2023	3255.721	3273.5673	3284.1163
CN1C=CC2=C1C=CO2	Cn1ccc2c1cco2	
InChI=1S/C7H7NO/c1-8-4-2-7-6(8)3-5-9-7/h2-5H,1H3	InChI=1S/C7H7NO/c1-8-4-2-7-6(8)3-5-9-7/h2-5H,1H3
