17
gdb 83317	2.58836	1.67689	1.41577	4.1019	68.01	-0.2432	-0.0391	0.2041	968.2563	0.135619	-458.948569	-458.94052	-458.939576	-458.981767	29.898	
O	 0.0495349766	 1.4552112562	-0.0892311601	-0.43582
C	-0.0485882249	 0.0727794577	 0.0000466475	 0.136384
C	-0.4388863381	-0.6577473954	 1.2602471754	-0.123304
C	-1.1971823696	 0.1610275266	 2.2847293088	-0.098772
O	-2.2407346285	 0.8286988897	 1.5652311192	-0.262503
C	-2.5999541411	 0.0586853307	 0.436212525	-0.005706
C	-3.0802003454	 0.9818045264	-0.6762917682	 0.155631
O	-2.7696851089	 2.1402843261	-0.7750626401	-0.240026
C	-1.3420375964	-0.7117597892	 0.0292905841	-0.15334
H	-0.8037343723	 1.8653607432	 0.1116601218	 0.310034
H	 0.7487818147	-0.3911344387	-0.5735074966	 0.10819
H	 0.121893155	-1.5223309884	 1.5971009953	 0.096697
H	-1.6174296831	-0.4860910519	 3.0680623338	 0.103115
H	-0.5944991761	 0.9419164975	 2.7586810653	 0.127763
H	-3.4096027818	-0.6560504256	 0.666106037	 0.089276
H	-3.7276075103	 0.4868400681	-1.4331352246	 0.093236
H	-1.4601664801	-1.6062176729	-0.5712800236	 0.099147
42.5293	136.1888	189.2656	203.1205	265.6085	316.9826	401.8531	492.6546	549.8099	686.367	728.6228	748.693	764.1093	798.2293	850.4785	942.8717	974.8836	986.8918	1014.4561	1027.2689	1064.8166	1078.9381	1090.768	1117.1033	1145.6699	1206.3683	1234.1782	1286.5286	1309.2651	1341.4995	1352.2508	1368.6426	1402.8191	1426.0987	1466.9463	1514.087	1832.1592	2892.948	2952.5215	3001.825	3081.5374	3152.5077	3171.7632	3182.0613	3735.6469
OC1C2COC(C=O)C12	O[C@H]1[C@H]2CO[C@@H](C=O)[C@@H]12	
InChI=1S/C6H8O3/c7-1-4-5-3(2-9-4)6(5)8/h1,3-6,8H,2H2	InChI=1S/C6H8O3/c7-1-4-5-3(2-9-4)6(5)8/h1,3-6,8H,2H2/t3-,4-,5-,6-/m0/s1
