16
gdb 64946	4.02255	0.65652	0.64915	2.654	79.45	-0.2517	0.014	0.2657	1738.6171	0.122313	-400.711013	-400.701624	-400.70068	-400.747297	33.309	
O	 0.5311405363	 1.1693635963	 0.5449404711	-0.44063
C	 0.0484244652	-0.0641412993	 0.0826991975	 0.224952
C	-0.8168250705	-0.8812523679	 1.0305166729	-0.311321
C	-1.4475666824	-0.1081198906	-0.0983319951	-0.288415
C	 0.9051262735	-0.7543369216	-0.847223751	 0.119307
C	 1.6573868514	-1.3163759182	-1.6005308176	 0.016695
C	 2.5610137201	-1.9938296438	-2.5256554872	-0.47722
C	 3.4593111715	-2.9513034728	-1.8641507867	 0.278661
N	 4.1690497649	-3.7049349684	-1.3529452759	-0.300342
H	 1.3426962897	 1.0006999958	 1.0375471207	 0.288555
H	-0.770529237	-1.9616744534	 0.9628501824	 0.129715
H	-0.9169844265	-0.4776916261	 2.031567738	 0.127052
H	-1.9649556802	 0.8116683623	 0.1479471732	 0.136013
H	-1.8405818981	-0.6518461842	-0.9485143412	 0.128996
H	 1.9910204385	-2.5333287064	-3.2932568263	 0.183371
H	 3.1770243437	-1.2620918416	-3.0643248446	 0.18461
13.6176	65.8043	107.3754	172.2804	286.2117	303.1893	328.3839	355.2932	375.4943	391.9026	510.7003	556.0615	573.462	664.4669	775.1329	862.4428	888.3487	922.1609	927.5371	935.0691	991.4725	1056.5097	1077.8671	1084.203	1194.3668	1235.1303	1244.3322	1309.8302	1339.846	1378.3785	1443.929	1449.4169	1485.6406	2364.486	2373.2596	3025.5119	3055.5673	3141.8672	3148.9593	3232.4887	3247.4161	3793.7199
OC1(CC1)C#CCC#N	OC1(CC1)C#CCC#N	
InChI=1S/C7H7NO/c8-6-2-1-3-7(9)4-5-7/h9H,2,4-5H2	InChI=1S/C7H7NO/c8-6-2-1-3-7(9)4-5-7/h9H,2,4-5H2
