19
gdb 22980	2.08995	1.66521	1.16612	9.4578	77.75	-0.1253	0.0131	0.1384	1102.3289	0.159791	-456.202281	-456.193909	-456.192965	-456.235039	32.641	
O	-2.9380907211	 0.2779913216	 1.5584756004	-0.453526
C	-1.4325738227	 0.1741889399	 1.4039563876	-0.20238
C	-1.0436995729	-0.5970538986	 0.2179730657	 0.176084
N	-0.7905688681	 0.0834209726	-0.8993469297	-0.100669
O	-0.7308140399	-0.6276687949	-1.9634915023	-0.47868
C	-1.3110401935	-2.0714605647	 0.0537294384	-0.063493
C	-2.0052479345	-2.7406264656	 1.2635667145	-0.228692
N	-3.3328199268	-2.2779278207	 0.6876867829	-0.262229
H	-4.1604297616	-2.8529167222	 0.8299293346	 0.283728
H	-3.4621848323	-1.2835356752	 1.0251737682	 0.308063
C	-2.6593588143	-2.24592377	-0.7004645187	-0.176325
H	-3.2062741143	 0.8651258284	 0.8396824244	 0.280167
H	-1.0447646744	 1.1915615105	 1.3152580405	 0.126727
H	-1.1380163962	-0.2427242381	 2.371957669	 0.094831
H	-0.475051727	-2.6038251009	-0.3995994427	 0.105743
H	-1.9734491266	-3.8321647344	 1.2363659498	 0.136085
H	-1.8341766736	-2.3787853293	 2.2768202871	 0.150609
H	-2.9873182528	-1.4284033265	-1.3342401807	 0.17769
H	-2.8149500375	-3.2193796818	-1.1721248189	 0.126268
111.3563	136.0675	211.3381	234.4045	259.9323	331.4372	385.3715	413.6934	435.1249	533.6609	588.2075	691.5835	710.1275	751.1648	781.3104	799.0831	857.1513	903.2586	932.1459	969.8779	1000.7056	1015.1474	1071.1958	1073.4093	1145.1565	1148.6731	1216.7045	1245.2644	1282.1549	1292.9869	1307.9355	1322.4122	1326.9111	1350.5221	1379.576	1418.4001	1455.5307	1470.62	1488.6887	1510.7884	1634.4467	2857.4819	3047.4134	3081.1368	3084.9115	3108.0784	3114.7617	3155.2268	3210.4499	3512.7667	3774.2886
OCC(=N[O-])C1C[NH2+]C1	OC[C]([N][O])C1C[NH2]C1	
InChI=1S/C5H10N2O2/c8-3-5(7-9)4-1-6-2-4/h4,6,8-9H,1-3H2	InChI=1S/C5H10N2O2/c8-3-5(7-9)4-1-6-2-4/h4,8H,1-3,6H2
