19
gdb 61224	3.19234	0.98293	0.85848	6.0517	76.14	-0.2643	0.0359	0.3002	1374.9084	0.15804	-419.194883	-419.185139	-419.184195	-419.229899	35.58	
C	-0.0696228311	 1.5060405978	 0.0866950529	-0.468871
C	 0.0719504721	-0.0030290955	 0.0687566817	 0.292246
C	 0.924178652	-0.6247557813	-0.984318331	-0.288758
N	 1.3697869785	-0.5961576463	 0.4216427426	-0.34561
C	-1.1634259046	-0.7257641523	 0.6095106993	 0.074805
O	-2.2921269605	-0.467488171	-0.2089542189	-0.418343
C	-0.9470777321	-2.2385210447	 0.828764062	-0.382477
C	-2.0725879655	-2.8571511964	 1.5216387578	 0.273157
N	-2.9562313107	-3.3493250519	 2.0800046306	-0.307348
H	 0.7802704672	 1.9895540453	-0.4048417635	 0.112934
H	-0.9868532075	 1.8114823959	-0.4233105979	 0.144959
H	-0.1240656913	 1.8751273341	 1.1175429465	 0.128282
H	 0.7196418063	-1.6177064261	-1.3759781213	 0.118069
H	 1.40221325	 0.0412500581	-1.6978447344	 0.119719
H	 2.0641753735	 0.1342826346	 0.5581033767	 0.235686
H	-1.4182397466	-0.2810959357	 1.5786900793	 0.11225
H	-2.0881003305	-0.7724130721	-1.1009098558	 0.283097
H	-0.8130605524	-2.7456806731	-0.1342138318	 0.137342
H	-0.0273843168	-2.3927997292	 1.4002659652	 0.178861
54.7434	69.0692	128.5856	212.8583	231.5636	256.5069	315.9738	331.9256	365.1163	394.5426	400.9812	461.331	521.5851	558.5452	743.2423	850.3463	867.776	926.9099	939.0901	957.5072	981.5024	1000.0212	1042.9908	1052.8135	1097.07	1122.133	1153.8225	1192.737	1247.3163	1270.3897	1305.1939	1331.1887	1381.5056	1397.2149	1412.9454	1422.4778	1463.3284	1482.9492	1505.1587	1519.3927	2365.5453	3032.0268	3039.8969	3053.7011	3097.192	3104.618	3108.1611	3122.8439	3188.0982	3498.4928	3790.8237
CC1(CN1)C(O)CC#N	C[C@]1(CN1)[C@@H](O)CC#N	
InChI=1S/C6H10N2O/c1-6(4-8-6)5(9)2-3-7/h5,8-9H,2,4H2,1H3	InChI=1S/C6H10N2O/c1-6(4-8-6)5(9)2-3-7/h5,8-9H,2,4H2,1H3/t5-,6-/m0/s1
