22
gdb 58909	3.14825	1.32254	1.19929	1.9635	84.21	-0.2306	0.0692	0.2998	1157.2488	0.194478	-367.152816	-367.144289	-367.143345	-367.185732	33.87	
C	-0.0244312512	 1.5372094874	-0.0129548029	-0.394859
C	 0.0363648653	 0.0015772234	-0.0493982892	-0.101012
C	 0.6691095864	-0.49895768	-1.3560371842	-0.396714
C	 0.7364535732	-0.5408851656	 1.1792297714	 0.339695
C	 2.2503875877	-0.2967843741	 1.4771396998	-0.292099
C	 2.1828520475	-1.5786047421	 2.3024239481	-0.031909
C	 0.9791921534	-2.0578066852	 1.5872662965	-0.12212
N	 0.8582853305	-1.657440945	 3.0168647234	-0.150212
C	 0.136877053	-0.4138626987	 2.5956490878	-0.198264
H	 0.9810477892	 1.9713103719	-0.0523997089	 0.118641
H	-0.5866717979	 1.9250754992	-0.8683094432	 0.112824
H	-0.510082287	 1.8998674617	 0.8987019941	 0.118006
H	-0.9969979444	-0.3751762681	-0.0179419357	 0.073045
H	 1.686625001	-0.1128746416	-1.4809408055	 0.116178
H	 0.7197444277	-1.5922812939	-1.3840856982	 0.115038
H	 0.0838467085	-0.1682024801	-2.2200637477	 0.112408
H	 2.8753613899	-0.4455232764	 0.5928923847	 0.105234
H	 2.5250632101	 0.6415562612	 1.971795916	 0.093121
H	 2.9913783013	-2.1482236619	 2.7412911614	 0.096236
H	 0.6756946837	-3.0192512475	 1.1936902942	 0.09227
H	 0.3651971709	 0.4838419368	 3.1835414257	 0.092294
H	-0.9385460685	-0.6133265714	 2.6267032423	 0.102199
66.9986	159.9955	202.8582	236.6246	263.3515	301.1345	369.8943	431.0306	462.3085	478.5539	610.9341	724.0471	748.1786	797.354	843.1156	883.914	893.7443	925.3635	933.0459	958.3797	969.0364	978.2499	991.7977	1017.1709	1043.4649	1080.2752	1115.4852	1129.6283	1154.8054	1166.1334	1181.7525	1194.6763	1206.7022	1254.3684	1273.6271	1305.0899	1349.1591	1352.6301	1381.9296	1398.4664	1420.2302	1487.4112	1489.6334	1494.9297	1505.5896	1511.9463	1514.1383	2989.6415	3021.8282	3028.8716	3032.6505	3039.3002	3088.3224	3095.2974	3099.8438	3101.4296	3103.6879	3104.6288	3192.8002	3208.5107
CC(C)C12CC3C1N3C2	CC(C)[C@]12C[C@@H]3[C@H]1N3C2	
InChI=1S/C8H13N/c1-5(2)8-3-6-7(8)9(6)4-8/h5-7H,3-4H2,1-2H3	InChI=1S/C8H13N/c1-5(2)8-3-6-7(8)9(6)4-8/h5-7H,3-4H2,1-2H3/t6-,7-,8-,9?/m1/s1
