20
gdb 123117	7.2256	0.48162	0.45675	1.4985	73.95	-0.2565	0.0579	0.3144	2337.714	0.168954	-477.455995	-477.445088	-477.444143	-477.49389	36.864	
C	-0.0390547648	 1.3107151686	 0.0905822152	-0.229441
O	 0.0075370388	-0.093439881	 0.0162108557	-0.2302
C	 0.6541791877	-0.5597878271	-1.1463583693	-0.051333
C	 0.6434647722	-2.0829756684	-1.1195243719	-0.220246
C	 1.3266572113	-2.6771426717	-2.3404861899	-0.054636
O	 1.2595891604	-4.1054870601	-2.2155140861	-0.260828
C	 1.8370205385	-4.7969716007	-3.2291230179	 0.491911
N	 1.6646041462	-6.1390586824	-3.0317370687	-0.563555
O	 2.3923343405	-4.2945086814	-4.1777591109	-0.397255
H	 0.9695485626	 1.7540587369	 0.1075300388	 0.103598
H	-0.5893861668	 1.7481524312	-0.7578583647	 0.103842
H	-0.5546952769	 1.5726651733	 1.0176623065	 0.127659
H	 0.1405416814	-0.1846536971	-2.049243866	 0.087579
H	 1.690512422	-0.1802330436	-1.188726692	 0.087056
H	 1.1459752282	-2.4286772033	-0.2099835615	 0.115957
H	-0.3926805721	-2.4335280891	-1.0686465697	 0.1178
H	 0.8350590684	-2.3735420752	-3.2711541827	 0.120481
H	 2.3756501183	-2.3698753449	-2.4114785448	 0.119681
H	 1.393679077	-6.4630001607	-2.1189156533	 0.263925
H	 2.2302588771	-6.7458203431	-3.5995790368	 0.268005
33.1047	56.5807	83.0827	98.0513	123.3071	174.2763	213.2089	237.4775	266.9501	343.4785	374.5605	480.5117	500.8554	537.923	675.3843	772.8463	786.7208	884.6728	923.1227	985.9819	1062.1222	1086.4901	1108.1801	1124.2291	1167.9558	1168.7267	1193.3294	1228.1469	1239.7829	1297.6892	1298.6779	1306.494	1352.4464	1425.1598	1439.7919	1482.6276	1485.6437	1498.4344	1505.4412	1522.5221	1536.2332	1612.1096	1834.5241	2941.5133	2966.4463	2968.9443	3010.7107	3040.1792	3052.5498	3075.3784	3103.4313	3114.2894	3615.0239	3744.7415
COCCCOC(N)=O	COCCCOC(=O)N	
InChI=1S/C5H11NO3/c1-8-3-2-4-9-5(6)7/h2-4H2,1H3,(H2,6,7)	InChI=1S/C5H11NO3/c1-8-3-2-4-9-5(6)7/h2-4H2,1H3,(H2,6,7)
