17
gdb 117915	2.39274	0.95952	0.72567	2.4986	72.95	-0.2672	-0.0735	0.1937	1506.4425	0.132029	-458.930528	-458.920297	-458.919353	-458.966569	35.79	
O	-0.1309998283	 1.4467456228	-0.2278933652	-0.423426
C	-0.0058603802	 0.0550338322	 0.0223386578	-0.076361
C	-1.3964692195	-0.5563821407	-0.0978151346	-0.193275
C	-1.3660201984	-2.0777570815	 0.1234821027	 0.015368
O	-0.8460539133	-2.4011843184	 1.3844072833	-0.436911
C	-2.7616272415	-2.6853589394	-0.0171915394	 0.211136
O	-3.2633056198	-3.2796311451	 0.9176742734	-0.316082
C	-3.4310218594	-2.5353301359	-1.2876563245	 0.289523
C	-3.9669098717	-2.4122364339	-2.3583238187	-0.403639
H	 0.7165476462	 1.8611059398	-0.0425203809	 0.287092
H	 0.6713104958	-0.4227202484	-0.7059929729	 0.082421
H	 0.3929369625	-0.1451341064	 1.0255530837	 0.113662
H	-2.0559459385	-0.0947226432	 0.6454591504	 0.116142
H	-1.8026188188	-0.3329520022	-1.0899219678	 0.117491
H	-0.7433074875	-2.5327343343	-0.6675566846	 0.097627
H	-1.548142736	-2.8964010503	 1.8374089609	 0.295902
H	-4.4526131916	-2.3075733051	-3.2985534637	 0.22333
53.7901	89.0436	100.3871	120.1644	163.675	238.6525	248.117	298.6854	350.2843	354.3465	438.8589	460.7356	529.7572	616.5035	655.6423	706.088	721.2286	803.541	869.9125	950.8671	1028.4622	1078.9488	1102.5909	1109.4731	1177.7802	1224.8519	1228.7286	1274.8688	1310.8402	1326.6351	1364.2665	1434.2205	1459.6868	1481.8091	1530.5822	1749.2171	2215.6321	2950.174	2959.283	3032.6945	3046.4198	3098.3721	3491.4887	3674.6191	3832.1502
OCCC(O)C(=O)C#C	OCC[C@@H](O)C(=O)C#C	
InChI=1S/C6H8O3/c1-2-5(8)6(9)3-4-7/h1,6-7,9H,3-4H2	InChI=1S/C6H8O3/c1-2-5(8)6(9)3-4-7/h1,6-7,9H,3-4H2/t6-/m1/s1
