18
gdb 8872	3.73989	1.34397	1.07552	3.5651	72.1	-0.2278	-0.0671	0.1607	1119.191	0.15236	-381.125603	-381.116264	-381.115319	-381.160042	32.397	
C	-0.0285062715	 1.5494466924	-0.0343489638	-0.385797
C	 0.0419672781	 0.0179431067	-0.0216294566	-0.139993
N	 0.6704408381	-0.5744478831	-1.2032572097	-0.076087
C	 2.1214634628	-0.4949360939	-1.2486303904	-0.34968
C	-0.0974626377	-0.7056131437	-2.3375271382	 0.263641
N	-1.2986133479	-0.2618209532	-2.4044134038	-0.515577
C	 0.4647116242	-1.5504713694	-3.4697574919	 0.09502
O	-0.0642572385	-1.593763313	-4.5507426308	-0.237801
H	 0.9655870703	 2.0041562563	-0.0960414325	 0.110726
H	-0.6273723978	 1.890579889	-0.8809061965	 0.153697
H	-0.4976601087	 1.905608831	 0.8882332659	 0.117467
H	 0.6086044936	-0.3297060314	 0.8506671235	 0.096103
H	-0.9689660374	-0.390307343	 0.0416509308	 0.137754
H	 2.5197142108	-0.9537981358	-2.1532166762	 0.134228
H	 2.4773253421	 0.5447434112	-1.2292412964	 0.131728
H	 2.5516994524	-1.0155142901	-0.3857834448	 0.13218
H	-1.6981158808	-0.5532217855	-3.298178088	 0.234308
H	 1.3448565079	-2.1841800146	-3.2424727806	 0.098082
70.6919	89.7896	116.38	121.9807	197.1301	223.1564	301.1484	342.4234	394.306	403.6721	515.9042	569.5705	629.1435	790.8536	823.0519	875.7069	900.5769	1002.0057	1024.7318	1079.8774	1105.9867	1126.8288	1152.8317	1234.5439	1270.3789	1356.4427	1388.8954	1403.2367	1407.587	1460.7232	1468.4562	1479.3416	1480.8411	1498.1159	1508.1682	1530.528	1668.7333	1818.3162	2928.5394	3006.4621	3032.4505	3041.988	3064.607	3098.3249	3115.8665	3141.4679	3146.7034	3469.8364
CCN(C)C(=N)C=O	CCN(C)C(=N)C=O	
InChI=1S/C5H10N2O/c1-3-7(2)5(6)4-8/h4,6H,3H2,1-2H3	InChI=1S/C5H10N2O/c1-3-7(2)5(6)4-8/h4,6H,3H2,1-2H3
