14
gdb 75768	2.52046	1.35638	1.16702	3.4558	62.89	-0.2848	-0.0261	0.2586	1073.179	0.098397	-473.849642	-473.840716	-473.839772	-473.88362	31.166	
C	-0.2042428416	 1.5913364307	 0.0869074179	-0.427782
C	 0.0035938848	 0.0865825958	 0.0938625459	 0.231116
O	 1.1398391322	-0.3091288224	-0.7594853011	-0.261622
C	 1.886744436	-0.7307067811	 0.3173815316	 0.426181
O	 3.0141984112	-1.0960359417	 0.3281450856	-0.30913
C	 0.7465450064	-0.5081594294	 1.331057275	-0.110059
O	 0.9543939748	 0.4053686136	 2.3621988638	-0.408297
C	-1.2001645573	-0.6463078058	-0.3026689536	 0.269739
N	-2.1635239267	-1.2152069278	-0.5897917518	-0.319727
H	 0.7114655426	 2.0902374411	 0.4064749749	 0.153236
H	-0.4712692307	 1.9232005137	-0.9188265193	 0.153878
H	-1.0086473144	 1.8604675792	 0.7757588303	 0.155717
H	 0.3105934071	-1.455443662	 1.6722251403	 0.13384
H	 1.5135756455	-0.0058489638	 3.0303809707	 0.312909
73.6495	107.2104	155.4226	190.5548	202.2194	250.6867	253.9992	374.2887	437.502	467.4606	522.7676	600.6469	645.9633	721.8286	811.8214	864.5372	923.2753	947.6515	1055.4793	1124.9426	1166.3117	1180.1198	1218.2831	1263.8572	1294.6794	1408.9185	1429.9141	1480.2089	1482.0708	1953.0587	2363.6696	3036.658	3062.6111	3141.6029	3156.7796	3820.7138
CC1(OC(=O)C1O)C#N	C[C@]1(OC(=O)[C@H]1O)C#N	
InChI=1S/C5H5NO3/c1-5(2-6)3(7)4(8)9-5/h3,7H,1H3	InChI=1S/C5H5NO3/c1-5(2-6)3(7)4(8)9-5/h3,7H,1H3/t3-,5+/m1/s1
