21
gdb 83540	3.07876	1.45692	1.28204	1.8242	81.91	-0.252	0.0835	0.3355	1086.204	0.184182	-387.062383	-387.054528	-387.053584	-387.094256	31.863	
C	-0.1157922118	 1.6597070698	-0.0021863855	-0.437861
C	 0.0039124702	 0.1435096477	 0.0119965838	 0.048415
C	 1.1073235156	-0.6012981855	-0.8172338601	-0.147752
C	 2.423485393	-0.0084715065	-0.2671178007	-0.21813
C	 2.0912286285	-0.0203271184	 1.2656022891	-0.21813
C	 0.6673325652	-0.6170358952	 1.212541698	-0.147752
C	 0.8779230789	-1.7369607289	 0.1868702803	 0.548314
C	 0.2600791104	-3.0463203261	 0.0427790808	-0.312913
O	 1.6648213302	-2.8966884482	 0.3484483319	-0.306764
H	 0.830903066	 2.1638492106	 0.206859356	 0.120785
H	-0.4671232492	 2.009230461	-0.9792310277	 0.116697
H	-0.8411488081	 1.9958475676	 0.7468692266	 0.116698
H	-0.9722316406	-0.3039209768	-0.2030656943	 0.071845
H	 1.0219460346	-0.7474461112	-1.8940858078	 0.061502
H	 3.278161246	-0.6448394821	-0.5087804259	 0.110872
H	 2.6277884539	 0.9933463884	-0.6533285178	 0.09545
H	 2.7711785872	-0.6629086452	 1.8300411414	 0.110869
H	 2.1140392177	 0.975020054	 1.7164936534	 0.095452
H	 0.1442138245	-0.7788395213	 2.1551049688	 0.061502
H	-0.3449065323	-3.459994343	 0.8488336366	 0.115451
H	 0.04447383	-3.4460597006	-0.9474632568	 0.115452
151.4523	175.9294	236.7196	263.5054	271.9107	284.3416	441.176	449.7122	576.8148	622.4572	703.6835	738.8721	777.2181	846.1791	865.6106	884.5242	903.6664	937.6635	949.5368	993.8639	999.3015	1015.8836	1051.14	1056.4695	1115.1784	1117.2358	1143.783	1144.7309	1169.61	1174.3715	1204.6266	1213.6484	1254.6076	1258.0595	1271.5769	1318.2254	1325.7169	1396.9824	1412.4841	1459.3639	1483.1312	1493.9311	1507.5264	1513.5934	1553.1734	3034.6071	3050.6739	3060.8551	3068.5769	3079.2579	3091.725	3099.0762	3114.4567	3115.2728	3118.1576	3121.2399	3163.5801
CC1C2CCC1C21CO1	C[C@H]1[C@H]2CC[C@@H]1[C@]12CO1	
InChI=1S/C8H12O/c1-5-6-2-3-7(5)8(6)4-9-8/h5-7H,2-4H2,1H3	InChI=1S/C8H12O/c1-5-6-2-3-7(5)8(6)4-9-8/h5-7H,2-4H2,1H3/t5-,6+,7-,8+
