20
gdb 26113	2.49825	1.29564	1.05491	1.8177	81.74	-0.2255	0.0126	0.2381	1252.6494	0.1704	-403.202234	-403.192738	-403.191793	-403.236952	34.439	
C	-0.0397722753	 1.6001343354	-0.0686341678	-0.383672
C	-0.0589439431	 0.0596774066	-0.0277769879	-0.09345
C	-1.5034034938	-0.477578254	-0.0199668842	-0.383638
C	 0.7375168552	-0.5276574942	-1.1465116183	 0.297765
C	 1.8436354284	-1.3123756349	-1.244536311	 0.142919
C	 2.7046952058	-1.8978235894	-0.175609509	-0.494371
N	 2.1208782774	-1.5382568068	-2.5965183266	-0.304167
C	 1.1953106387	-0.897194431	-3.2247049938	 0.057726
O	 0.3122041541	-0.254976862	-2.4302253898	-0.191856
H	 0.9834325857	 1.9844096439	-0.0256746019	 0.119113
H	-0.4999207851	 1.9670608365	-0.9911829358	 0.128798
H	-0.5982361339	 2.013188022	 0.7772682914	 0.112433
H	 0.4310357375	-0.2637810664	 0.8982499374	 0.089517
H	-2.0241114728	-0.1968111539	-0.9405812499	 0.128759
H	-1.519361836	-1.5685270464	 0.0576838351	 0.119115
H	-2.0617916956	-0.0642138303	 0.8258424282	 0.112442
H	 2.7219432578	-2.9907842133	-0.2439658792	 0.138396
H	 3.7393476999	-1.5529406091	-0.2760582156	 0.138404
H	 2.3487664791	-1.6237917431	 0.8206552028	 0.121975
H	 1.041761736	-0.8119236695	-4.2893411041	 0.143792
45.782	112.4058	139.6383	173.9744	222.7642	248.1781	255.6269	277.2507	370.7714	412.9918	505.3938	615.3861	671.0193	705.6825	729.4801	836.1072	884.1833	930.477	957.8466	962.2918	974.9674	1040.4835	1065.9807	1106.0926	1120.8758	1147.4265	1191.6982	1238.3459	1286.2842	1328.5134	1354.9452	1370.4772	1395.2044	1417.3649	1421.7345	1475.0065	1486.7956	1490.8617	1491.3465	1500.4949	1512.2822	1565.0337	1672.8669	3035.7271	3036.2992	3039.4344	3040.0491	3091.1533	3107.0867	3111.7258	3113.8759	3117.4433	3120.7773	3270.9403
CC(C)C1=C(C)N=CO1	CC(C)c1c(C)nco1	
InChI=1S/C7H11NO/c1-5(2)7-6(3)8-4-9-7/h4-5H,1-3H3	InChI=1S/C7H11NO/c1-5(2)7-6(3)8-4-9-7/h4-5H,1-3H3
