17
gdb 15054	2.85932	1.60881	1.09806	2.0902	70.83	-0.2497	0.0278	0.2775	1082.0556	0.140098	-363.778046	-363.769214	-363.76827	-363.811868	31.372	
C	-1.3183360848	-0.5294274142	 0.0609374085	-0.238686
O	 0.0799122293	-0.7187440481	-0.026936344	-0.22794
C	 0.7803955307	-0.434976873	 1.1709794536	-0.086357
C	 0.4113514517	-1.3465397358	 2.2660874059	 0.337124
C	 0.114479592	-2.0967380974	 3.1570845387	-0.468613
C	 2.2614628964	-0.5263244937	 0.85160385	 0.02657
C	 2.9794023716	 0.6843600257	 0.3929282677	-0.244872
N	 3.2403147559	 0.1217572294	 1.7306635963	-0.317767
H	-1.5678792877	 0.510805972	 0.3225135556	 0.103566
H	-1.7288332045	-0.7549384772	-0.9255502313	 0.131209
H	-1.7751893413	-1.1960834841	 0.8039993271	 0.123061
H	 0.5580389805	 0.5990290622	 1.4955023276	 0.081689
H	-0.1411836203	-2.7588653523	 3.9474796755	 0.202829
H	 2.5648839815	-1.5025754549	 0.4834541128	 0.109635
H	 3.802047523	 0.5941514248	-0.3100143624	 0.123774
H	 2.4130374114	 1.608866052	 0.3117889086	 0.112709
H	 2.7628654347	 0.6701759647	 2.4430979596	 0.232068
61.8304	100.6404	140.5345	177.3079	186.9435	245.8219	336.69	382.6211	446.3957	522.022	593.6613	637.4498	676.9224	814.5719	888.2867	898.578	943.1198	981.6023	1016.4511	1055.0862	1125.5635	1133.8849	1157.5734	1182.8746	1193.948	1239.8837	1243.8477	1285.383	1312.4257	1345.8444	1426.4348	1477.4556	1485.0503	1509.9835	1513.5865	2230.0305	2923.6585	2982.6571	3048.4684	3110.5968	3124.4479	3150.6801	3196.9443	3487.212	3500.9991
COC(C#C)C1CN1	CO[C@@H](C#C)[C@H]1CN1	
InChI=1S/C6H9NO/c1-3-6(8-2)5-4-7-5/h1,5-7H,4H2,2H3	InChI=1S/C6H9NO/c1-3-6(8-2)5-4-7-5/h1,5-7H,4H2,2H3/t5-,6+/m1/s1
