17
gdb 22834	3.35956	1.21241	0.91083	2.7362	86.8	-0.1895	-0.0287	0.1608	1236.1704	0.138318	-417.975294	-417.967224	-417.96628	-418.008041	30.981	
O	-0.2681532347	 1.2664591289	 1.000702379	-0.393712
N	-0.0499198243	-0.0728402969	 0.6667635684	-0.203787
C	-0.9995646602	-0.5625860066	-0.0778276026	 0.2844
C	-0.7619886576	-1.973563045	-0.3964821626	-0.062319
C	-1.5987292107	-2.8566967804	-0.9467534203	-0.094039
C	-3.0410300883	-2.6397592263	-1.3221504981	-0.228813
N	-3.327514934	-1.3855349094	-2.0120637247	-0.300392
C	-3.0667529682	-0.1560127268	-1.4650121648	-0.003712
C	-2.1121541874	 0.2168250264	-0.5837203555	-0.187087
H	 0.5164851603	 1.4731631716	 1.5184525904	 0.305305
H	 0.2281680946	-2.3105972357	-0.1040728157	 0.100275
H	-1.2419911581	-3.8741626497	-1.0806259857	 0.095922
H	-3.3589600738	-3.4451833154	-1.9906296438	 0.112776
H	-3.6601485572	-2.7248953145	-0.4110057052	 0.118187
H	-4.1778654044	-1.4180836241	-2.5514489564	 0.242985
H	-3.727640554	 0.6208009766	-1.842687004	 0.106809
H	-2.1106560521	 1.2586569874	-0.2967558183	 0.107203
68.3845	150.6985	224.1593	258.9989	343.3536	358.2141	384.0367	443.3017	495.4179	516.4273	565.3166	656.1	743.4402	757.5433	812.9446	838.832	864.5334	907.5394	970.6402	991.0035	1010.0419	1020.901	1045.8417	1179.7116	1238.9641	1279.8318	1325.1755	1329.0947	1364.6317	1384.3159	1445.9041	1463.3312	1489.0023	1542.8973	1629.2878	1698.9805	1726.0602	2938.9913	3075.348	3154.127	3158.1143	3181.5477	3233.7618	3623.1063	3824.9066
ON=C1C=CCNC=C1	ON=C1C=CCNC=C1	
InChI=1S/C6H8N2O/c9-8-6-2-1-4-7-5-3-6/h1-3,5,7,9H,4H2	InChI=1S/C6H8N2O/c9-8-6-2-1-4-7-5-3-6/h1-3,5,7,9H,4H2
