20
gdb 116365	3.25657	1.16531	0.90434	1.688	76.79	-0.2434	0.0162	0.2595	1307.9255	0.171755	-440.292588	-440.283733	-440.282789	-440.326536	32.66	
C	-0.1890504474	 1.561775627	-0.0555566286	-0.389676
C	 0.0171721399	 0.0460326217	-0.0067389917	-0.183867
C	 0.7640848793	-0.5003458175	-1.223077664	 0.089304
C	 1.0371226046	-2.0025826651	-1.1025797825	-0.15104
N	 1.7535295075	-2.6740885462	-2.1696361764	-0.26111
C	 1.626806136	-2.4576917908	-3.4035780179	 0.120221
O	 0.9111849976	-1.5373647211	-4.1118855798	-0.224522
C	 0.6623551826	-0.2435835598	-3.5688049983	 0.018961
O	-0.0344098198	-0.2239330623	-2.376677057	-0.228987
H	 0.7699572462	 2.0918196723	-0.0691147571	 0.111595
H	-0.7435165309	 1.8458819165	-0.953397132	 0.132247
H	-0.7492110943	 1.90943818	 0.817329974	 0.114199
H	 0.5787502521	-0.229569178	 0.8934387806	 0.101957
H	-0.9527204854	-0.4619247805	 0.057954547	 0.109712
H	 1.726017497	 0.0293351449	-1.3329027674	 0.07234
H	 1.595117003	-2.1731389278	-0.1743478267	 0.10822
H	 0.0707564415	-2.513526942	-0.9821797949	 0.122397
H	 2.1255547907	-3.1231711911	-4.1090668627	 0.120297
H	 1.6313912535	 0.2705231038	-3.4616991289	 0.093747
H	 0.0455539163	 0.2513425561	-4.3208540757	 0.124007
82.8516	97.0816	117.374	188.836	228.5962	303.9611	345.404	390.4252	434.9709	463.8913	525.2354	626.4087	746.5279	778.1359	869.4866	925.1747	929.4659	959.2909	972.6301	984.7303	1051.1051	1077.2398	1100.7405	1132.7529	1143.6179	1183.7745	1212.1974	1261.2376	1301.2834	1307.1489	1336.0097	1379.5519	1389.4915	1403.0643	1410.6906	1431.4774	1459.2728	1467.5396	1479.506	1496.6715	1501.3782	1509.8027	1765.9853	2957.5101	2973.1716	3009.6942	3033.3124	3037.5615	3053.7658	3072.6275	3103.6952	3119.6504	3125.8709	3132.9785
CCC1CN=COCO1	CC[C@H]1CN=COCO1	
InChI=1S/C6H11NO2/c1-2-6-3-7-4-8-5-9-6/h4,6H,2-3,5H2,1H3	InChI=1S/C6H11NO2/c1-2-6-3-7-4-8-5-9-6/h4,6H,2-3,5H2,1H3/t6-/m0/s1
