23
gdb 84131	2.48846	1.35457	1.02338	0.3465	92.21	-0.2256	0.0333	0.2589	1291.1818	0.205568	-351.168231	-351.158941	-351.157997	-351.202015	36.285	
C	-0.1435591761	 1.5712221079	-0.0111548238	-0.382589
C	-0.0160540217	 0.036607088	 0.0116466122	-0.11727
C	 0.8175490019	-0.4718999269	-1.1428530642	-0.167927
C	 1.9997115167	-0.9657479075	-0.768790459	 0.329515
C	 3.0853648784	-1.494652366	-1.6516614471	-0.491566
C	 2.1602276173	-0.9032206302	 0.7360068408	-0.384009
C	 0.7568829061	-0.5250972598	 1.2248906431	 0.377875
C	 0.5178210452	-0.0497483374	 2.631901303	-0.319895
C	 0.0541325152	-1.4239547214	 2.2120777822	-0.308988
H	 0.8405266646	 2.0466577713	 0.0536469643	 0.113945
H	-0.6169886226	 1.9065785685	-0.9403399959	 0.107742
H	-0.7531001417	 1.9359298558	 0.8221534556	 0.108666
H	-1.0312099688	-0.3832018494	-0.0192732448	 0.069397
H	 0.4861263379	-0.38292605	-2.1732929297	 0.078464
H	 2.8067919996	-1.4474191255	-2.7080622059	 0.121122
H	 4.0157964929	-0.926929784	-1.5195425873	 0.122747
H	 3.3235223692	-2.538099803	-1.4078509407	 0.122712
H	 2.5075342362	-1.854434837	 1.1607490844	 0.096607
H	 2.9177622586	-0.1534455716	 1.0118367043	 0.100138
H	 1.3722798072	 0.0220574185	 3.2977791469	 0.105364
H	-0.2362063271	 0.711918872	 2.8013773643	 0.107193
H	-1.012733677	-1.5837680208	 2.089385934	 0.106273
H	 0.5916960179	-2.2864812515	 2.5939768834	 0.104485
61.739	135.8664	188.1323	218.4227	246.164	255.9788	305.1254	347.356	396.8122	444.898	490.8129	528.2266	636.943	740.255	782.3036	837.2984	871.5681	875.3361	903.9714	926.1482	954.867	979.9499	998.2927	1010.6097	1030.9394	1054.9009	1071.9317	1079.5249	1097.4088	1110.323	1170.8816	1188.5174	1202.2282	1259.1126	1274.561	1294.7842	1337.9479	1345.7826	1380.6711	1404.5033	1413.4929	1466.031	1478.6799	1486.0506	1489.6448	1493.4643	1496.5601	1505.1775	1724.853	2986.0155	2999.0991	3014.0214	3026.9661	3028.9244	3058.3623	3095.3669	3104.1413	3107.7435	3116.59	3123.6779	3172.9367	3194.5264	3210.3062
CC1C=C(C)CC11CC1	C[C@H]1C=C(C)CC21CC2	
InChI=1S/C9H14/c1-7-5-8(2)9(6-7)3-4-9/h5,8H,3-4,6H2,1-2H3	InChI=1S/C9H14/c1-7-5-8(2)9(6-7)3-4-9/h5,8H,3-4,6H2,1-2H3/t8-/m0/s1
