19
gdb 86632	3.15521	1.06863	0.87649	3.5299	80.68	-0.2507	-0.0617	0.189	1336.2882	0.158277	-423.052386	-423.043196	-423.042252	-423.086438	33.786	
C	-0.7273173723	 1.2923119258	 0.0931735615	-0.402727
C	 0.1349743761	 0.0364761438	-0.0049430504	 0.010082
C	 1.2271122375	 0.0689792969	-1.1045686264	-0.325684
C	 2.3047490611	-0.8240022881	-0.5385621582	 0.24959
C	 3.4405854587	-1.3337777827	-1.3152588604	 0.069661
O	 3.6228233426	-1.098359413	-2.4889909424	-0.26514
C	 2.1087954442	-1.0737576182	 0.7643029448	-0.187278
C	 0.8975087466	-0.3351673305	 1.2937792326	 0.067802
O	 1.2939243809	 0.8626291608	 1.9681352189	-0.428871
H	-0.119348258	 2.1645361465	 0.3440582543	 0.136389
H	-1.2322671426	 1.4841238989	-0.8590338644	 0.111597
H	-1.495987065	 1.1879881233	 0.8656042224	 0.11275
H	-0.5116830312	-0.8227066434	-0.2226990964	 0.082017
H	 0.8660436566	-0.2764991924	-2.077346278	 0.121165
H	 1.6202546793	 1.0818164344	-1.2596596132	 0.124878
H	 4.1456315163	-1.9751039283	-0.7397529828	 0.067103
H	 2.7692773766	-1.6670085034	 1.3905720786	 0.103932
H	 0.2786433137	-0.949153205	 1.9637190858	 0.068628
H	 1.8017021689	 0.6159978848	 2.7477293037	 0.284106
90.183	96.091	164.2877	204.6305	221.1684	232.5983	264.799	350.711	394.526	455.1638	497.3421	544.328	671.4425	735.1947	816.7647	869.3201	880.2697	925.2731	940.3168	985.0987	1002.54	1034.1697	1076.104	1118.5917	1146.7496	1175.9833	1203.1676	1239.4437	1271.7277	1318.1235	1346.5555	1364.7663	1369.7658	1403.3667	1412.8589	1422.2487	1482.2231	1493.1781	1500.1281	1679.3642	1787.0399	2876.8212	2992.5409	3026.6639	3036.9857	3040.4528	3090.2859	3101.9351	3128.0704	3175.3315	3818.8629
CC1CC(C=O)=CC1O	C[C@H]1CC(=C[C@H]1O)C=O	
InChI=1S/C7H10O2/c1-5-2-6(4-8)3-7(5)9/h3-5,7,9H,2H2,1H3	InChI=1S/C7H10O2/c1-5-2-6(4-8)3-7(5)9/h3-5,7,9H,2H2,1H3/t5-,7+/m0/s1
