18
gdb 58604	2.28159	1.2916	1.02543	2.7754	71.24	-0.2789	0.0206	0.2995	1210.7849	0.145732	-439.079349	-439.069957	-439.069013	-439.114063	34.421	
C	-0.1122972703	 1.3132789701	-0.3604952733	-0.419975
C	-0.3597371673	-0.1975533455	-0.2789229564	 0.056808
O	 0.7402798319	-0.862428239	 0.3140134948	-0.429449
C	-1.6431709858	-0.5415579073	 0.4874449867	 0.389014
C	-2.9326279933	 0.1653121571	 0.0732691811	-0.429288
C	-3.2929429501	-0.0916229876	-1.3201496286	 0.271759
N	-3.5610962541	-0.3010395189	-2.4242791456	-0.308902
C	-1.7396121893	-1.8215873011	 1.1968755549	-0.225186
O	-1.4654341648	-0.5950398829	 1.9062484969	-0.291406
H	 0.8664398258	 1.487052695	-0.8130162805	 0.137187
H	-0.8632379704	 1.8210190338	-0.9735679799	 0.125378
H	-0.1146552589	 1.7639577519	 0.63860735	 0.122672
H	-0.4463213439	-0.6060044389	-1.2923062056	 0.118822
H	 0.7088602585	-0.6460403306	 1.2557628961	 0.28931
H	-3.7474016431	-0.1669395703	 0.7235117036	 0.163038
H	-2.830884784	 1.2460437433	 0.2179701883	 0.16464
H	-2.718098601	-2.2548132854	 1.3946796	 0.122681
H	-0.9057885099	-2.5146143636	 1.1461996776	 0.142896
45.4883	78.4525	128.3867	225.8823	264.8162	287.0767	345.9927	362.219	401.1661	410.437	443.0632	473.0073	507.5593	640.1872	697.9712	854.4388	870.7186	909.4416	939.2179	954.7817	998.4528	1051.7182	1095.1487	1121.3581	1133.2336	1173.3775	1191.3956	1246.6049	1305.0569	1321.5989	1349.6711	1401.8649	1409.0032	1432.353	1460.1418	1496.1118	1499.3016	1518.749	2364.4721	3034.8055	3054.745	3057.1598	3098.2217	3105.6993	3107.0916	3129.8215	3210.252	3761.3225
CC(O)C1(CC#N)CO1	C[C@@H](O)[C@@]1(CC#N)CO1	
InChI=1S/C6H9NO2/c1-5(8)6(2-3-7)4-9-6/h5,8H,2,4H2,1H3	InChI=1S/C6H9NO2/c1-5(8)6(2-3-7)4-9-6/h5,8H,2,4H2,1H3/t5-,6-/m1/s1
