21
gdb 75026	2.62097	1.69286	1.23174	0.7124	91.2	-0.1991	-0.0216	0.1775	1094.0126	0.185506	-349.962641	-349.954937	-349.953993	-349.994328	31.668	
C	 0.1069191087	 1.5812114144	 0.0415647126	-0.484399
C	-0.0275335281	 0.0841218609	-0.011175612	 0.300254
C	-0.1328359814	-0.5616726591	-1.1889226132	-0.168712
C	-0.2689558392	-1.9972811867	-1.4168143653	-0.060057
C	-0.3173343498	-2.9728285398	-0.4946402544	-0.102502
C	-0.2382463624	-2.7667919158	 0.9917875218	-0.057829
C	-1.1936067736	-1.6436623231	 1.5067973904	-0.223566
C	-0.0341928317	-0.6141180348	 1.3310518228	-0.102423
C	 0.9375279943	-1.8319061928	 1.4194806409	-0.223567
H	 1.0358045086	 1.8758055941	 0.5490127573	 0.123709
H	 0.1052328447	 2.0294666092	-0.9553128303	 0.118897
H	-0.7111866371	 2.030169638	 0.621423252	 0.123698
H	-0.1160692111	 0.0467392073	-2.0905959912	 0.072712
H	-0.3376125727	-2.2899824908	-2.4618705287	 0.080159
H	-0.422007245	-3.9978565601	-0.8402613759	 0.083574
H	-0.3013772912	-3.7235863157	 1.5137477862	 0.059586
H	-2.1151859779	-1.4707026808	 0.94834994	 0.104126
H	-1.4232956662	-1.7857170219	 2.5655844772	 0.097468
H	 0.0637281758	 0.1232472342	 2.1312062657	 0.057279
H	 1.2239865676	-2.0195497282	 2.4571215811	 0.097468
H	 1.826735938	-1.8189067385	 0.786844793	 0.104124
125.9274	202.4236	252.0145	312.974	320.9164	338.5245	368.039	512.1706	543.6435	622.2259	698.0468	735.9681	796.7493	816.1337	834.3986	861.0295	887.8634	927.9275	943.7816	971.0219	988.089	1004.3614	1060.3713	1064.8264	1074.3981	1089.5918	1118.509	1156.0229	1169.4243	1183.5646	1251.6821	1252.0003	1261.2377	1266.6107	1357.0625	1367.5815	1402.1085	1409.5517	1436.0983	1468.8965	1476.0575	1488.8573	1493.8589	1666.0564	1703.2245	3004.6027	3046.3354	3059.5626	3060.7963	3073.4359	3082.6145	3110.7804	3124.9966	3126.1252	3137.2316	3150.0739	3169.2692
CC1=CC=CC2CC1C2	CC1=CC=C[C@@H]2C[C@H]1C2	
InChI=1S/C9H12/c1-7-3-2-4-8-5-9(7)6-8/h2-4,8-9H,5-6H2,1H3	InChI=1S/C9H12/c1-7-3-2-4-8-5-9(7)6-8/h2-4,8-9H,5-6H2,1H3/t8-,9+
