19
gdb 110497	4.96113	1.08026	1.04215	1.3363	79.92	-0.2182	0.0079	0.2261	1192.5905	0.160512	-385.821051	-385.81359	-385.812646	-385.853117	29.959	
O	 0.2517161605	 0.5905703475	 1.0586235142	-0.421707
C	-0.0595811293	 0.3596830701	-0.3113387393	-0.128371
C	-1.4259168024	-0.2930170548	-0.3588518271	 0.032726
C	-1.9271074779	-0.993934607	-1.6472879352	-0.070868
C	-1.0219103014	-2.253197513	-1.3549730574	-0.068531
C	-1.8172999905	-3.4785240222	-1.7781661593	-0.110111
C	-3.0669037562	-3.1950814979	-1.4059515484	-0.114989
C	-2.9538503967	-1.8157765958	-0.7795695493	-0.056979
C	-1.6048756551	-1.7823440229	 0.0335472478	-0.039954
H	 1.0995677454	 1.0422856646	 1.1014311582	 0.285184
H	-0.089974991	 1.3073614197	-0.8743008289	 0.081903
H	 0.7029097487	-0.2748300481	-0.7867271705	 0.083619
H	-2.1579018591	 0.3779903643	 0.1055666141	 0.067412
H	-2.121484761	-0.5477805133	-2.6274719272	 0.063986
H	 0.0498374193	-2.2209779222	-1.5451917948	 0.06217
H	-1.423620975	-4.3585495917	-2.2671982186	 0.099556
H	-3.9702218755	-3.779872286	-1.5077754004	 0.101146
H	-3.8349510457	-1.314660375	-0.3765744766	 0.060584
H	-1.4220283171	-2.2461499462	 1.0058430789	 0.073224
70.4333	159.7491	230.996	279.1896	347.666	444.4151	500.9352	535.2872	675.629	692.1091	772.7529	789.6891	801.0908	836.7168	905.8158	912.1462	924.0372	934.6715	946.4019	990.6129	1019.0443	1043.1602	1065.616	1084.2597	1104.9489	1121.4913	1138.9424	1146.2529	1168.0891	1191.2526	1208.1588	1254.7125	1258.0925	1259.6691	1275.5959	1321.9673	1330.3311	1405.1337	1468.5008	1520.659	1635.3589	2962.5215	3000.2756	3041.5891	3065.3876	3086.4636	3110.7447	3127.3031	3218.09	3245.5102	3827.3231
OCC1C2C3C=CC2C13	OC[C@H]1[C@H]2[C@@H]3C=C[C@H]2[C@H]13	
InChI=1S/C8H10O/c9-3-6-7-4-1-2-5(7)8(4)6/h1-2,4-9H,3H2	InChI=1S/C8H10O/c9-3-6-7-4-1-2-5(7)8(4)6/h1-2,4-9H,3H2/t4-,5+,6-,7-,8+
