17
gdb 33398	2.35422	1.36105	1.02018	2.9592	78.5	-0.2432	0.0037	0.2469	1197.9767	0.135071	-380.810917	-380.801996	-380.801051	-380.844991	32.269	
C	-0.017942039	-1.220266082	-0.1139632396	-0.40395
C	-0.0084707241	-0.0225958029	-0.0451710613	 0.340677
C	 0.0026853201	 1.4404531161	 0.0308819868	-0.307305
C	 1.3951210541	 1.9285731578	 0.2674728993	 0.276909
N	 2.4529265353	 2.3757793813	 0.398411283	-0.333469
N	-0.6163655605	 2.0342520495	-1.140249516	-0.062755
C	 0.0297928139	 1.9245855508	-2.4698162938	-0.170136
C	-0.4972320098	 3.3455822489	-2.7890180087	-0.22721
C	-0.6979789833	 3.5086803851	-1.2626476035	-0.176865
H	-0.0274006773	-2.2810454129	-0.1722587447	 0.210528
H	-0.5870057023	 1.7530817207	 0.9043166965	 0.158514
H	 1.1275739866	 1.8934042478	-2.4165189716	 0.115665
H	-0.3262962042	 1.0866637071	-3.0744503977	 0.116473
H	 0.1990179843	 4.0324029987	-3.2689663757	 0.117199
H	-1.4394944727	 3.332214006	-3.338531872	 0.119319
H	-1.6377615389	 3.9382234308	-0.9024375633	 0.110449
H	 0.1458703278	 4.0324755272	-0.7902893576	 0.115957
74.3977	106.1037	126.2024	145.7497	190.5973	313.7252	337.4481	352.8202	469.2667	553.0914	573.62	649.8273	672.3897	722.9174	787.2695	849.464	876.9754	923.3003	941.3021	987.5469	1017.3644	1087.121	1139.1489	1155.961	1194.612	1217.1736	1223.6944	1268.164	1286.865	1302.7654	1337.6685	1355.298	1487.8299	1504.9871	1530.7246	2252.1914	2344.346	2999.0345	3005.8053	3014.5297	3073.7314	3087.7203	3095.5699	3151.2165	3501.8973
C#CC(C#N)N1CCC1	C#C[C@@H](C#N)N1CCC1	
InChI=1S/C7H8N2/c1-2-7(6-8)9-4-3-5-9/h1,7H,3-5H2	InChI=1S/C7H8N2/c1-2-7(6-8)9-4-3-5-9/h1,7H,3-5H2/t7-/m0/s1
