20
gdb 39648	4.36068	1.0966	1.02021	2.5336	79.04	-0.2305	0.0711	0.3016	1228.0985	0.172832	-403.03624	-403.028641	-403.027697	-403.069104	29.327	
C	 1.576345169	 1.8223328557	 1.6277223389	-0.071643
C	 0.8704291449	 0.4589734771	 1.7342357502	-0.290085
C	 1.243548255	 0.311781953	 0.2373717778	 0.103212
O	 2.0442308824	 1.5208775454	 0.2973088996	-0.293516
C	 2.0812345836	-0.8484915122	-0.2757235936	 0.043227
C	 2.4554101756	-2.0968302509	 0.5632776604	-0.080101
C	 0.9763888061	-2.5026166337	 0.3736439565	-0.175125
N	 1.3459282758	-1.9816299285	-1.0295715848	-0.160161
C	 2.6513168119	-2.7689576227	-0.8110791315	-0.168878
H	 0.9022270338	 2.6889245978	 1.6365289043	 0.101142
H	 2.4044128598	 2.0102246333	 2.3203769089	 0.105975
H	 1.3778125417	-0.2530349768	 2.3879251927	 0.115844
H	-0.1944037655	 0.4722151739	 1.9712055804	 0.112112
H	 0.3865752701	 0.4498482931	-0.4385742185	 0.092578
H	 2.8851720471	-0.4191049148	-0.8838385474	 0.08901
H	 3.0847043165	-2.1648380334	 1.4580085004	 0.064813
H	 0.7341060477	-3.5690252052	 0.3882499316	 0.099758
H	 0.1965674691	-1.9233382308	 0.8711797275	 0.108339
H	 3.4774639738	-2.4300785646	-1.4418343489	 0.103386
H	 2.5152046216	-3.8518012756	-0.8748990044	 0.100113
64.671	86.7017	177.9316	219.4832	352.3947	380.5273	595.8395	605.803	762.593	774.1786	783.8317	826.9971	848.8355	876.4943	908.4983	914.1955	938.4733	971.5022	1010.4856	1026.6912	1031.3768	1058.1941	1086.9513	1092.4778	1121.8207	1143.2527	1164.0703	1172.0739	1197.5356	1201.6116	1219.4823	1230.8101	1248.9202	1257.9173	1282.0036	1288.4498	1350.4237	1372.8691	1407.5169	1487.3486	1514.9389	1531.0802	1553.0952	2993.1165	3013.0304	3031.2063	3050.699	3054.5344	3058.9477	3064.3317	3078.1759	3118.9857	3126.5013	3134.5196
C1CC(O1)C1C2CN1C2	C1C[C@@H](O1)[C@H]1[C@H]2CN1C2	
InChI=1S/C7H11NO/c1-2-9-6(1)7-5-3-8(7)4-5/h5-7H,1-4H2	InChI=1S/C7H11NO/c1-2-9-6(1)7-5-3-8(7)4-5/h5-7H,1-4H2/t6-,7-/m1/s1
