22
gdb 59350	2.88561	1.12986	0.88105	2.6339	84.23	-0.2116	-0.0191	0.1925	1401.2896	0.191956	-404.345496	-404.335344	-404.3344	-404.380573	37.194	
C	 0.0950080182	 1.680564662	 0.0756501907	-0.405403
C	 0.0948084526	 0.1607454803	-0.0048919326	-0.089949
C	 0.7300051199	-0.5720976344	-1.2301096468	-0.279297
C	 1.4069191032	-1.6044980286	-0.2762472699	-0.043193
N	 2.7829139276	-1.9736157165	-0.5165274189	-0.070678
C	 3.3468410097	-2.7218632732	 0.6029540058	-0.331977
C	 2.9343654706	-2.6965133117	-1.770713005	-0.315218
C	 1.1060096347	-0.6043765404	 0.8621252936	 0.382074
O	 1.5919984597	-0.3919664922	 1.9370885843	-0.308928
H	 1.0938919725	 2.0827693478	-0.1206248825	 0.125375
H	-0.5963657069	 2.1149664025	-0.6531724618	 0.119127
H	-0.2072878501	 2.0117701461	 1.0735043226	 0.134987
H	-0.9106142261	-0.2334330949	 0.1911211597	 0.103842
H	 0.0444049227	-0.9682235856	-1.9796689556	 0.106292
H	 1.4873627674	 0.0510907446	-1.7131461929	 0.119266
H	 0.7399667929	-2.4855127724	-0.1506115022	 0.069769
H	 2.8600360697	-3.7065172207	 0.7453140259	 0.085695
H	 4.4115744205	-2.8972943466	 0.42025296	 0.114022
H	 3.2378083763	-2.1453668323	 1.5226260156	 0.154756
H	 2.5561115067	-2.0951632672	-2.6025341859	 0.120186
H	 3.995642294	-2.8949465589	-1.9501636241	 0.119926
H	 2.4003081442	-3.6669314178	-1.7782819501	 0.089328
64.1643	87.9537	153.0146	176.0583	216.2643	231.8655	252.8667	278.7822	324.2054	346.163	369.9803	435.4112	541.9176	576.3563	678.8436	769.6531	821.9919	890.2408	925.4637	956.5844	983.5863	1045.6427	1068.0631	1081.4211	1111.6465	1124.9617	1141.8355	1146.9295	1189.3507	1227.6631	1234.2517	1257.7661	1275.9285	1316.2228	1334.7775	1366.9471	1407.3706	1442.3562	1473.1005	1483.7763	1486.1622	1494.064	1494.7206	1496.4591	1502.6713	1515.6594	1877.3573	2858.9023	2914.3846	2924.189	3031.0069	3037.709	3063.4331	3070.4829	3072.2706	3107.63	3108.5947	3113.5702	3135.3283	3142.8722
CC1CC(N(C)C)C1=O	C[C@H]1C[C@@H](N(C)C)C1=O	
InChI=1S/C7H13NO/c1-5-4-6(7(5)9)8(2)3/h5-6H,4H2,1-3H3	InChI=1S/C7H13NO/c1-5-4-6(7(5)9)8(2)3/h5-6H,4H2,1-3H3/t5-,6+/m0/s1
