19
gdb 63055	2.86106	1.6323	1.6167	0.3845	73.83	-0.231	0.0669	0.298	949.6703	0.159203	-422.976519	-422.968923	-422.967979	-423.007941	31.126	
C	-0.082571366	 1.5956084169	 0.0692068998	-0.46411
C	 0.0419132426	 0.0870573212	-0.0154560766	 0.394806
O	-1.2129962697	-0.5685877604	 0.1411109866	-0.47793
C	 0.6879589565	-0.5930948946	-1.2569069345	-0.081554
C	 2.0689305584	-0.0078165432	-1.653800412	-0.261943
C	 2.6984909493	-0.7048130627	-0.4276073931	 0.10476
O	 2.3923375668	-0.0034204534	 0.8031062482	-0.307197
C	 1.0947501777	-0.63080982	 0.8830448382	 0.044176
C	 1.4277990154	-1.592747362	-0.2861235715	-0.090426
H	 0.9010254232	 2.0697788116	 0.0522641875	 0.135323
H	-0.6857351995	 1.9837586296	-0.7577578019	 0.121242
H	-0.5706211731	 1.8855269103	 1.0086839135	 0.10228
H	-1.5676402957	-0.3195885012	 1.0023336387	 0.275423
H	-0.0100941033	-0.8841502797	-2.0407299519	 0.07665
H	 2.4226907215	-0.4815089083	-2.5758795128	 0.104998
H	 2.1894931725	 1.0754151558	-1.7392830088	 0.103501
H	 3.7389511988	-1.0330234534	-0.4588051937	 0.077171
H	 0.8135313958	-0.8969807879	 1.9063310783	 0.065822
H	 1.3725092788	-2.6767961385	-0.2876159441	 0.077008
170.0639	204.6179	224.2922	303.8209	359.9955	368.3653	401.2412	411.8019	511.8357	618.2036	693.556	762.8092	833.4639	836.8072	843.4074	885.0501	908.6402	945.4183	957.6429	987.3466	993.3443	1014.8592	1054.905	1097.9711	1112.2651	1133.6244	1156.3115	1175.4071	1180.1917	1200.9383	1228.7206	1247.7122	1273.0557	1284.4846	1309.1697	1327.0076	1378.7629	1401.9653	1470.3571	1483.2459	1500.5288	3023.2038	3045.8336	3063.7081	3089.4418	3093.4184	3103.2372	3120.4427	3132.5607	3164.8784	3791.9213
CC1(O)C2CC3OC1C23	C[C@@]1(O)[C@H]2C[C@H]3O[C@@H]1[C@@H]23	
InChI=1S/C7H10O2/c1-7(8)3-2-4-5(3)6(7)9-4/h3-6,8H,2H2,1H3	InChI=1S/C7H10O2/c1-7(8)3-2-4-5(3)6(7)9-4/h3-6,8H,2H2,1H3/t3-,4+,5-,6+,7+/m0/s1
