14
gdb 8776	4.44657	1.31039	1.18508	3.1543	55.86	-0.2758	-0.0529	0.2229	985.2934	0.103429	-456.820875	-456.812423	-456.811479	-456.85429	29.24	
O	-0.0616923232	 1.4435103864	 0.0012049907	-0.431186
C	 0.0310879478	 0.0511376902	-0.0034596017	 0.023086
C	 0.7412030655	-0.4332938524	-1.2562886905	 0.155687
O	 1.1238588755	 0.3425165049	-2.0945466512	-0.252077
C	 0.7889962278	-0.4657610444	 1.2440307733	 0.023116
O	 2.145631504	-0.1448549929	 1.1815249471	-0.431213
C	 0.1568373149	 0.124397926	 2.4932774583	 0.155672
O	 0.8111284196	 0.7555106089	 3.2835780821	-0.252063
H	 0.4152847351	 1.7425605396	-0.7897644979	 0.302365
H	-0.9745761103	-0.4099762515	-0.0007024793	 0.096967
H	 0.8809810817	-1.5279994846	-1.3553138821	 0.105188
H	 0.6461506401	-1.5617075725	 1.2938845181	 0.096922
H	 2.3156606555	 0.4329056409	 1.943000885	 0.302364
H	-0.9262198139	-0.0609286685	 2.636007218	 0.105173
63.6733	104.7698	119.2697	234.9505	266.9615	293.794	312.6717	370.7131	405.2636	457.9396	677.4794	695.8689	777.2379	832.6968	869.6852	940.9711	988.2368	1036.682	1142.405	1177.8985	1232.62	1284.4323	1315.045	1345.1414	1395.4632	1406.1609	1421.394	1445.5098	1818.7871	1826.3657	2932.5734	2934.0742	2945.4347	2956.211	3685.0263	3686.4875
OC(C=O)C(O)C=O	O[C@@H](C=O)[C@@H](O)C=O	
InChI=1S/C4H6O4/c5-1-3(7)4(8)2-6/h1-4,7-8H	InChI=1S/C4H6O4/c5-1-3(7)4(8)2-6/h1-4,7-8H/t3-,4-/m0/s1
