18
gdb 122806	2.98793	0.92769	0.80842	1.2866	71.25	-0.2224	-0.108	0.1145	1435.9234	0.144683	-476.21592	-476.205762	-476.204818	-476.25285	34.891	
O	-1.6854730742	 1.4323823147	-0.1153666837	-0.429113
C	-0.6897059814	 0.4332215773	-0.0317180928	-0.07001
C	-1.2343878424	-0.9955109199	-0.1523771549	-0.158591
N	-1.8513719165	-1.3584986638	-1.4270625049	-0.282518
C	-3.2577033541	-1.1168470138	-1.6242850619	-0.257957
C	-3.6443255207	 0.1581331848	-2.3481286551	 0.282552
O	-2.8672488613	 1.0188603748	-2.7063044445	-0.305627
C	-5.1275936211	 0.3427163805	-2.7001826564	 0.101337
O	-5.9736195024	-0.4741493969	-2.4501464434	-0.212262
H	-1.9011535635	 1.5427649658	-1.0491346667	 0.300869
H	 0.0972826902	 0.5880466022	-0.7884595165	 0.083905
H	-0.2107639232	 0.5384592461	 0.9498925091	 0.104126
H	-0.4027613647	-1.6886084886	 0.0412891186	 0.097291
H	-1.974846232	-1.1633551806	 0.637878876	 0.111057
H	-1.3067422642	-1.0265354342	-2.2143966583	 0.222103
H	-3.7238189779	-1.9306608235	-2.2055540236	 0.142964
H	-3.7896173127	-1.1340421115	-0.6652608901	 0.155328
H	-5.3346901178	 1.3115017666	-3.2017215608	 0.114546
29.9178	47.8595	95.0678	119.1992	163.1802	183.9916	253.7021	301.312	376.251	427.7654	494.7628	514.2217	540.185	612.1769	647.6972	804.288	832.5828	858.0138	904.272	1026.6261	1029.0933	1086.4444	1131.0533	1160.0882	1184.8826	1225.7812	1281.3298	1317.061	1364.4411	1375.2379	1386.4667	1410.3535	1421.7531	1428.9982	1479.566	1490.6408	1515.1789	1784.9771	1822.7736	2925.9966	2968.1286	2974.7595	3001.9602	3050.275	3064.0268	3072.6705	3546.0222	3775.6486
OCCNCC(=O)C=O	OCCNCC(=O)C=O	
InChI=1S/C5H9NO3/c7-2-1-6-3-5(9)4-8/h4,6-7H,1-3H2	InChI=1S/C5H9NO3/c7-2-1-6-3-5(9)4-8/h4,6-7H,1-3H2
