25
gdb 57460	2.78985	1.16358	1.02529	0.1415	92.83	-0.2331	0.0323	0.2654	1332.3381	0.228684	-352.379323	-352.369456	-352.368512	-352.413399	38.875	
C	 0.063054434	 1.5800690008	 0.2502811578	-0.409984
C	 0.0054587617	 0.0559112263	 0.032516729	 0.239806
C	 0.7501684762	-0.6410569272	 1.188363758	-0.403923
C	-1.4683264573	-0.3955279898	 0.0559610901	-0.403946
C	 0.6448658915	-0.3799148968	-1.3144876293	 0.051234
C	-0.0270546549	 0.1694391318	-2.6089686904	-0.28742
C	 1.1236556577	 0.307753367	-3.5743286618	-0.063669
C	 2.3036188463	 0.1772707648	-2.9719149663	-0.063674
C	 2.1625509962	-0.0727599688	-1.4911102978	-0.287404
H	 1.0913227763	 1.9539928478	 0.2706024328	 0.111901
H	-0.4757424298	 2.1274809553	-0.5292018134	 0.111895
H	-0.397642612	 1.8407668826	 1.2094847241	 0.108379
H	 0.2846015433	-0.4020540134	 2.1508853796	 0.104855
H	 0.7308712057	-1.7305732861	 1.0707921526	 0.105685
H	 1.7978487172	-0.328572866	 1.2410739868	 0.111837
H	-2.0548911553	 0.0979532066	-0.7253630405	 0.111835
H	-1.5525032439	-1.4778426784	-0.0948880706	 0.105689
H	-1.9327296183	-0.15680861	 1.0191144223	 0.10486
H	 0.5455316042	-1.4724519699	-1.356589448	 0.069563
H	-0.8131960263	-0.498746076	-2.9786210463	 0.100743
H	-0.5107187894	 1.1432932701	-2.448947007	 0.103543
H	 0.9782506204	 0.5255162554	-4.627105339	 0.086954
H	 3.2690280204	 0.2721953013	-3.4575838217	 0.086952
H	 2.4797093182	 0.8125023655	-0.9222058756	 0.103543
H	 2.7920237178	-0.8975334928	-1.1380463253	 0.100745
86.3333	92.5817	212.6341	216.3237	252.9793	259.8166	304.0304	328.2041	348.5011	378.3621	399.3753	446.8607	508.2596	575.938	721.1134	763.8459	782.8957	840.2414	926.1439	931.0441	934.719	952.4674	955.1359	976.6425	984.6158	991.6098	1013.8766	1027.7623	1065.4514	1096.6358	1131.0733	1165.7208	1182.1804	1236.7192	1242.9016	1274.1466	1297.2366	1320.3179	1336.1561	1368.1754	1374.8778	1398.6474	1398.8617	1431.1056	1475.7421	1484.3171	1485.6914	1491.9868	1499.3656	1506.6172	1509.0337	1517.7968	1692.498	3004.9568	3013.8005	3016.4285	3021.6639	3025.7036	3037.103	3050.5507	3056.0191	3085.5454	3090.6663	3096.3254	3098.2138	3102.1185	3107.8735	3176.0763	3202.0516
CC(C)(C)C1CC=CC1	CC(C)(C)[C@H]1CC=CC1	
InChI=1S/C9H16/c1-9(2,3)8-6-4-5-7-8/h4-5,8H,6-7H2,1-3H3	InChI=1S/C9H16/c1-9(2,3)8-6-4-5-7-8/h4-5,8H,6-7H2,1-3H3
