21
gdb 77573	2.65791	1.40777	1.20395	1.5346	83.29	-0.2425	0.0728	0.3153	1152.5746	0.181706	-387.050769	-387.041832	-387.040888	-387.083786	35.142	
C	-0.0716763947	 1.5526575677	 0.0325115337	-0.501539
C	 0.0646343605	 0.0569560143	-0.0049049655	 0.332559
C	-0.8051258688	-0.8626755619	 0.8180977376	-0.348104
C	 0.6853737566	-0.917831014	 1.0124745591	-0.191305
C	 1.2846836543	-1.7308230202	-0.1158689718	 0.361814
C	 2.609298529	-2.4212895602	-0.1741204073	-0.353817
C	 1.3291393723	-3.2237103433	-0.2748263029	-0.327842
C	 0.7352611481	-0.7210287585	-1.1509200431	-0.007896
O	-0.0341213361	-1.177694155	-2.2385812736	-0.433272
H	 0.8734878278	 2.0453457849	-0.2226693735	 0.117886
H	-0.8277795563	 1.8969820502	-0.6831675538	 0.12567
H	-0.3738013172	 1.9018011829	 1.0254835319	 0.115634
H	-1.3727933078	-0.3625917695	 1.5972344114	 0.110486
H	-1.3233080201	-1.7162020824	 0.3835797129	 0.09441
H	 1.1665013419	-0.6867299707	 1.9555786616	 0.087214
H	 3.2113168581	-2.299735574	-1.0696611688	 0.113994
H	 3.1859202426	-2.5009753121	 0.7422695867	 0.110382
H	 1.0447713712	-3.84487427	 0.5685572693	 0.109762
H	 1.0613193377	-3.6250534282	-1.2474113285	 0.115991
H	 1.5441940444	-0.1322505619	-1.5959811619	 0.088476
H	-0.7941292934	-1.6503535883	-1.8819481835	 0.279498
101.9153	185.6376	196.5836	218.8986	225.5878	258.4298	301.124	332.4432	457.8942	477.9731	519.3237	585.9465	705.0735	742.2041	784.8062	817.2042	866.8263	920.0249	934.6892	948.3	962.8307	990.3876	997.3484	1017.4612	1047.6662	1074.0451	1076.517	1092.4329	1107.9419	1133.6238	1189.6413	1194.0028	1224.8283	1243.9704	1277.3481	1292.299	1376.5384	1402.1573	1421.382	1436.3195	1460.9754	1486.2412	1494.1015	1498.9884	1507.0035	3021.5108	3059.3379	3081.0232	3091.8086	3094.7999	3118.7495	3122.9018	3178.1209	3188.5629	3197.5023	3213.4856	3804.8689
CC12CC1C1(CC1)C2O	C[C@]12C[C@H]1C1(CC1)[C@H]2O	
InChI=1S/C8H12O/c1-7-4-5(7)8(2-3-8)6(7)9/h5-6,9H,2-4H2,1H3	InChI=1S/C8H12O/c1-7-4-5(7)8(2-3-8)6(7)9/h5-6,9H,2-4H2,1H3/t5-,6+,7+/m1/s1
