13
gdb 133342	3.2046	1.41539	0.98224	4.6345	68.06	-0.2232	-0.0614	0.1618	1083.3043	0.088685	-494.011558	-494.003994	-494.00305	-494.043586	28.927	
N	 0.0648871016	 1.3997897837	 0.1405439818	-0.592936
C	-0.054713901	 0.0400490578	 0.0478019036	 0.238871
C	-1.2001973158	-0.6817778808	 0.0304855683	-0.260135
C	-1.1656930362	-2.1224447409	-0.0051875542	 0.417816
N	-2.2004823335	-2.8571277682	-0.0191230825	-0.541748
O	 0.1017729057	-2.7301345216	-0.0257370957	-0.295355
N	 1.2791885235	-2.0061600623	-0.0280653784	-0.133944
C	 1.1710110727	-0.7400860327	 0.0096908494	 0.335095
F	 2.3085121353	-0.0464670356	 0.0003311373	-0.065134
H	 0.9495886441	 1.8031779126	-0.1199486915	 0.273464
H	-0.7471505674	 1.9596107532	-0.0625827201	 0.270052
H	-2.1807278173	-0.2235957422	 0.0486127689	 0.126807
H	-1.9449816716	-3.8445091529	-0.0460310068	 0.227145
92.9011	179.0915	303.2515	360.9599	368.7141	369.4685	406.6837	441.0165	458.6168	529.1558	588.4261	666.8287	721.4431	723.7532	777.7157	823.9824	874.9891	880.7281	1029.2196	1073.1743	1120.0527	1272.5147	1286.3162	1329.1148	1473.4251	1635.3017	1658.8359	1713.6901	1740.5902	3218.059	3493.3367	3600.9554	3716.0988
NC1=CC(=N)ON=C1F	N[C]1C=C([NH])ON=C1F	
InChI=1S/C4H4FN3O/c5-4-2(6)1-3(7)9-8-4/h1,7H,6H2	InChI=1S/C4H4FN3O/c5-4-2(6)1-3(7)9-8-4/h1,7H,6H2
