21
gdb 79082	2.84774	1.6868	1.22804	0.2248	86.97	-0.2151	0.0099	0.2249	1086.5346	0.182849	-349.905516	-349.897562	-349.896618	-349.937276	32.785	
C	-0.1413479172	 1.5996941937	 0.0040315002	-0.436645
C	 0.0108277238	 0.0842142251	 0.0178710749	 0.017103
C	 1.2176526198	-0.601355745	-0.6790150335	-0.088361
C	 2.1601169921	-0.1822745454	 0.5112310295	-0.07107
C	 3.1480624574	-1.3148309077	 0.7237782898	-0.119277
C	 2.4143956715	-2.4107840562	 0.5386333138	-0.1649
C	 1.0134998659	-1.8911047562	 0.221954798	 0.337061
C	-0.0726050773	-2.9124835746	-0.0436818947	-0.518241
C	 0.7934103869	-0.6271649678	 1.1552278403	-0.08839
H	 0.7905893809	 2.1263043112	 0.2266004108	 0.115214
H	-0.4884955879	 1.9437937569	-0.976864142	 0.11392
H	-0.885435444	 1.9196434352	 0.7423018176	 0.113922
H	-0.9557332372	-0.3752228666	-0.2121644622	 0.058466
H	 1.4772783305	-0.5931084555	-1.7429616127	 0.058169
H	 2.4984917499	 0.8478174012	 0.6040002093	 0.062708
H	 4.1964219813	-1.2152427298	 0.9676995054	 0.099768
H	 2.6975883131	-3.4536695716	 0.5894495099	 0.095984
H	-0.2030172857	-3.5713141392	 0.8223490151	 0.118351
H	-1.0422957791	-2.456279463	-0.2595079677	 0.119674
H	 0.1926653442	-3.544590575	-0.8987584309	 0.118369
H	 0.559537031	-0.6489151297	 2.2249400391	 0.058175
177.29	180.1398	232.977	237.4527	267.7715	331.8146	418.3928	508.8883	515.748	610.4056	681.2699	698.8229	765.2112	775.2358	802.6434	809.4547	871.71	889.6059	906.1457	929.1063	976.0422	1013.8403	1045.2945	1059.8892	1064.1354	1085.8704	1104.467	1117.6117	1136.9189	1171.9077	1179.9281	1206.422	1227.1973	1252.2488	1285.6827	1307.5725	1338.8279	1405.1746	1412.6914	1425.6969	1491.1925	1496.1224	1496.5092	1501.564	1644.2061	3029.3724	3030.0994	3045.746	3053.8892	3062.5648	3085.5989	3085.9532	3108.8298	3111.5877	3137.2352	3211.8172	3241.6614
CC1C2C3C=CC2(C)C13	C[C@H]1[C@H]2[C@@H]3C=C[C@@]2(C)[C@H]13	
InChI=1S/C9H12/c1-5-7-6-3-4-9(7,2)8(5)6/h3-8H,1-2H3	InChI=1S/C9H12/c1-5-7-6-3-4-9(7,2)8(5)6/h3-8H,1-2H3/t5-,6-,7-,8+,9+
