18
gdb 77316	2.93782	1.25544	0.93411	3.1663	78.31	-0.2424	0.0277	0.2701	1232.8723	0.147594	-401.968906	-401.95997	-401.959026	-402.002553	33.411	
C	-0.0967899238	 1.5624183819	-0.0184942956	-0.406213
C	 0.1006028525	 0.052433411	 0.030957724	-0.104903
C	 0.8254898436	-0.5790080242	-1.1859511024	-0.186027
C	 1.486232348	-1.8519661397	-0.5872668119	-0.185023
N	 1.7362749001	-1.4426899097	 0.7816227702	-0.318878
C	 0.953598796	-0.4088164096	 1.2231286312	 0.40482
O	 0.9331847233	 0.0444570942	 2.3461029262	-0.383593
C	-0.0187069822	-0.8388497317	-2.3397660335	 0.315739
C	-0.7295256976	-1.057116437	-3.2843208172	-0.444163
H	 0.8553648505	 2.0779259958	-0.1836215512	 0.119331
H	-0.7824676403	 1.8416435072	-0.8233084647	 0.123293
H	-0.5042251056	 1.9121572726	 0.933175224	 0.143586
H	-0.8750340509	-0.4388206704	 0.1482133308	 0.112018
H	 1.6331754879	 0.1046319812	-1.479400663	 0.114434
H	 0.8018592816	-2.7087736133	-0.650141001	 0.118884
H	 2.4108174411	-2.1146705437	-1.1088015125	 0.12366
H	 2.2715555601	-1.9908107489	 1.4363318059	 0.253661
H	-1.3533791143	-1.2450132457	-4.1229039992	 0.199376
74.0024	127.5	161.1003	207.6288	214.9477	251.2863	352.2764	428.0161	473.2356	508.6931	546.0626	576.0952	631.5255	644.4711	673.5879	706.581	820.5258	838.1781	983.0117	1012.4155	1045.6823	1071.0816	1077.2043	1130.1588	1141.2772	1220.7612	1239.2215	1262.4954	1305.2595	1333.7223	1349.3848	1371.8057	1407.8714	1443.3055	1494.776	1497.3806	1531.6068	1830.4491	2239.1703	3009.7644	3016.5751	3028.7753	3041.2078	3083.0697	3109.672	3129.6688	3503.9494	3639.8944
CC1C(CNC1=O)C#C	C[C@H]1[C@@H](CNC1=O)C#C	
InChI=1S/C7H9NO/c1-3-6-4-8-7(9)5(6)2/h1,5-6H,4H2,2H3,(H,8,9)	InChI=1S/C7H9NO/c1-3-6-4-8-7(9)5(6)2/h1,5-6H,4H2,2H3,(H,8,9)/t5-,6+/m0/s1
