23
gdb 115516	4.34881	0.75211	0.69487	2.4715	81.96	-0.2608	0.0774	0.3382	1662.9332	0.206171	-425.43208	-425.42202	-425.421075	-425.468368	37.007	
O	 0.1130595955	 1.2917161529	-0.2688302242	-0.42181
C	 0.0172027222	-0.1235451465	-0.2024586295	-0.085275
C	-1.4289827597	-0.4945562035	 0.1086337968	 0.045226
C	-2.4054481145	-0.1119911993	-1.0400975169	-0.225075
C	-2.763580414	-1.440116695	-1.7252380564	-0.199434
C	-2.8070603151	-2.4397155074	-0.558238361	 0.058354
C	-2.7969355513	-3.9032673085	-0.9669894236	-0.098365
O	-3.9752515015	-4.1648268466	-1.7175829525	-0.42435
C	-1.5929968945	-2.0297692242	 0.3006393594	-0.266444
H	 1.0111945254	 1.5220494369	-0.5230400463	 0.284786
H	 0.3173773105	-0.5874893234	-1.1578257751	 0.079646
H	 0.6798996263	-0.5301045599	 0.5793297241	 0.081762
H	-1.7011570237	 0.0390155688	 1.0247402117	 0.076196
H	-3.3104132987	 0.3428995022	-0.6229329265	 0.094064
H	-1.9645022496	 0.626299488	-1.7145283603	 0.103974
H	-3.6971495316	-1.4043142453	-2.2906258321	 0.10607
H	-1.9708655313	-1.7372022754	-2.4263325952	 0.0851
H	-3.7280660852	-2.2619197156	 0.0135342636	 0.077716
H	-1.8915717907	-4.107866183	-1.564249459	 0.077888
H	-2.7480578168	-4.5430751514	-0.0704695062	 0.080771
H	-3.9657335559	-5.089352673	-1.9812312366	 0.284984
H	-0.6966673708	-2.5496617928	-0.0677556875	 0.087202
H	-1.7056549452	-2.311040958	 1.3515116433	 0.097017
15.9431	110.5788	124.659	150.1235	221.6059	242.3814	263.9778	273.0796	324.5286	393.5549	422.3409	494.7791	578.6863	638.5248	785.9745	828.9414	876.1184	902.4999	933.019	977.8492	988.7939	1019.9724	1037.2333	1057.1139	1074.8544	1094.4959	1108.2355	1132.5713	1177.5596	1210.6607	1212.0461	1246.349	1255.1762	1265.2409	1281.9349	1293.4666	1314.0526	1329.5444	1341.8141	1346.0065	1372.1764	1391.8486	1454.4339	1460.5838	1487.9816	1495.2421	1505.8686	1518.4924	1520.8948	2949.1041	2949.5029	2977.8176	2979.2718	3002.0635	3009.0546	3025.2869	3041.565	3056.8888	3083.5077	3099.8271	3107.9849	3831.3434	3831.7803
OCC1CCC(CO)C1	OC[C@H]1CC[C@@H](CO)C1	
InChI=1S/C7H14O2/c8-4-6-1-2-7(3-6)5-9/h6-9H,1-5H2	InChI=1S/C7H14O2/c8-4-6-1-2-7(3-6)5-9/h6-9H,1-5H2/t6-,7+
