23
gdb 115366	2.9674	1.06323	0.9668	0.9104	88.78	-0.2424	0.0144	0.2568	1382.9973	0.206305	-388.302852	-388.293395	-388.292451	-388.337269	35.897	
C	 0.0212119786	 1.3329091312	 0.2269503724	-0.232996
O	-0.0425187802	 0.0055277885	-0.2356168485	-0.24735
C	-1.3268487794	-0.6122348854	-0.1071680203	 0.101171
C	-1.222968477	-1.9751344336	-0.7940682598	-0.241406
C	-0.475275932	-2.9740009357	 0.0943542693	-0.197976
C	-1.2234919806	-3.2156884471	 1.414551102	-0.007119
C	-0.3607582126	-3.9804823446	 2.4299534525	-0.401062
C	-1.7281531701	-1.9163204033	 1.9930732947	-0.035618
C	-1.7685119671	-0.7585574824	 1.3335680907	-0.102629
H	 1.0047687509	 1.7227331251	-0.0485464778	 0.123529
H	-0.7507967423	 1.966258023	-0.2403958649	 0.096857
H	-0.0890469795	 1.4059312079	 1.3185752491	 0.105893
H	-2.0620072896	 0.0169119988	-0.6385650032	 0.058187
H	-2.2350665537	-2.3417658197	-1.0056911997	 0.092578
H	-0.7128560698	-1.8424751806	-1.7527739814	 0.101049
H	-0.3257156036	-3.9243297063	-0.4297599253	 0.085272
H	 0.5190210695	-2.5669078176	 0.3137236537	 0.111991
H	-2.106273413	-3.8415281958	 1.2011568145	 0.080146
H	 0.5297765827	-3.4018972258	 2.6983748567	 0.120503
H	-0.916668707	-4.1877826346	 3.3505919168	 0.109108
H	-0.0285662866	-4.9377112395	 2.0148243801	 0.111994
H	-2.0872973916	-1.9580502474	 3.020918243	 0.082412
H	-2.1502592558	 0.1289014347	 1.8318583256	 0.085465
52.1416	96.5761	183.0747	197.6303	235.7626	256.0079	301.0976	331.7927	359.3716	439.6899	460.25	574.2784	589.4956	723.6078	746.7683	801.3152	862.0461	905.1888	915.7131	970.0574	990.5183	1011.9913	1013.66	1075.7157	1085.2029	1121.0217	1139.0839	1148.2011	1172.4283	1181.3647	1223.9225	1246.8081	1261.04	1319.5084	1339.1926	1359.7713	1370.1857	1375.1917	1384.5069	1404.068	1428.7597	1476.4301	1477.1687	1487.7456	1491.19	1497.1413	1502.2728	1511.9848	1714.8168	2944.4122	2961.0059	2968.6534	3021.9915	3027.5227	3033.2208	3034.1809	3075.4633	3088.2294	3097.3831	3101.3232	3105.6518	3125.7839	3160.0392
COC1CCC(C)C=C1	CO[C@H]1CC[C@@H](C)C=C1	
InChI=1S/C8H14O/c1-7-3-5-8(9-2)6-4-7/h3,5,7-8H,4,6H2,1-2H3	InChI=1S/C8H14O/c1-7-3-5-8(9-2)6-4-7/h3,5,7-8H,4,6H2,1-2H3/t7-,8+/m0/s1
