21
gdb 119106	1.97179	1.05426	0.75147	1.2505	89.64	-0.2276	0.0468	0.2744	1615.4496	0.179223	-387.049359	-387.038596	-387.037652	-387.086587	37.902	
C	 0.1021591908	 1.5621639481	 0.173046498	-0.384513
C	 0.2878780337	 0.0691072768	-0.033514249	-0.05112
O	 0.4667856305	-0.5315037783	 1.2443967891	-0.275578
C	 0.657898925	-1.9177115626	 1.2080147142	 0.263553
C	 2.0703018939	-2.4086842017	 0.923064024	-0.317785
C	 1.5212992749	-2.4408743121	 2.3271483527	-0.314114
C	-0.4646152813	-2.700705776	 0.7501655223	 0.094212
C	-1.412005722	-3.3372280156	 0.3627829139	-0.004472
C	-2.5566774924	-4.1120287755	-0.0935689061	-0.500278
H	 0.9774543822	 1.9968489288	 0.6645601953	 0.122694
H	-0.0406047718	 2.0638433921	-0.7888783309	 0.113475
H	-0.7729906785	 1.7566748808	 0.7994882021	 0.127771
H	-0.5876032678	-0.3689873881	-0.5333616829	 0.100336
H	 1.1643766334	-0.1335323556	-0.668489255	 0.086031
H	 2.190039733	-3.3424396532	 0.3866171712	 0.121829
H	 2.8004215436	-1.6414916938	 0.6911357018	 0.120989
H	 1.8800451703	-1.6923462404	 3.0239909901	 0.127571
H	 1.2563860311	-3.3963008405	 2.7632609681	 0.123195
H	-2.5654732799	-5.1078731864	 0.3635055791	 0.149414
H	-3.4985362001	-3.6202196853	 0.1737675906	 0.150532
H	-2.5481363386	-4.2464173913	-1.1810725586	 0.146256
33.7687	59.982	87.0748	121.5074	136.1912	192.402	248.3498	291.6008	293.1571	359.0025	374.7967	429.2685	552.0971	573.4349	629.7365	775.496	820.8966	843.9501	897.4583	922.4842	950.6455	995.102	1051.8889	1052.2054	1056.2451	1068.5084	1080.0628	1095.5711	1148.416	1190.5965	1193.7669	1265.6803	1293.3447	1337.2155	1399.181	1414.2147	1425.6938	1449.5854	1476.2899	1479.916	1483.15	1484.2049	1501.3533	1529.1633	2361.8938	2982.7509	3023.1651	3025.4105	3043.7654	3084.5362	3087.9266	3117.3322	3120.8049	3139.7662	3145.6583	3228.514	3243.6215
CCOC1(CC1)C#CC	CCOC1(CC1)C#CC	
InChI=1S/C8H12O/c1-3-5-8(6-7-8)9-4-2/h4,6-7H2,1-2H3	InChI=1S/C8H12O/c1-3-5-8(6-7-8)9-4-2/h4,6-7H2,1-2H3
