16
gdb 48403	2.47161	1.61904	1.22359	3.1881	69.04	-0.2536	-0.0489	0.2047	1028.5912	0.122173	-437.843829	-437.835502	-437.834558	-437.877311	30.016	
O	-0.1869208118	-0.0021911908	-0.1401369005	-0.254352
C	-0.0766582267	 1.1671288224	 0.1280876084	 0.127274
C	 1.2263728706	 1.9362145525	 0.0217098464	 0.139068
C	 2.5022805442	 1.1613527909	-0.4145586014	-0.314524
C	 2.5128526826	 2.0462435334	-1.6566538121	-0.007126
C	 1.2444082099	 1.9618986199	-2.3945092439	-0.245359
N	 1.2920113343	 2.8482378911	-1.2054465828	-0.187605
C	 1.4586359287	 2.7839712443	 1.2543858726	 0.130417
O	 0.906116542	 2.5945994966	 2.3071310695	-0.249196
H	-0.9491479535	 1.7811794826	 0.4301312285	 0.108175
H	 3.3495456212	 1.3261489634	 0.254054781	 0.124647
H	 2.3622791435	 0.089935447	-0.5694392855	 0.144146
H	 3.3864950048	 2.5498985827	-2.0554906076	 0.108575
H	 1.1600053094	 2.5362635229	-3.311263602	 0.134469
H	 0.6526973829	 1.0513123099	-2.3668646888	 0.145061
H	 2.1994700979	 3.5998630912	 1.1091753481	 0.09633
67.076	89.1394	160.3749	202.9764	240.1377	297.6331	364.7079	419.448	475.3704	616.0514	699.9813	754.8501	778.6889	824.8001	879.1319	911.2579	964.5918	980.0811	1021.7868	1059.5763	1065.1091	1117.4071	1138.3607	1151.1492	1173.9346	1230.3608	1269.0738	1285.3955	1369.5878	1407.7258	1422.4768	1482.2734	1502.5778	1816.5531	1827.2207	2903.7586	2932.1884	3076.7122	3124.3322	3132.3051	3176.087	3215.6515
O=CC1(CC2CN12)C=O	O=CC1(C[C@H]2CN12)C=O	
InChI=1S/C6H7NO2/c8-3-6(4-9)1-5-2-7(5)6/h3-5H,1-2H2	InChI=1S/C6H7NO2/c8-3-6(4-9)1-5-2-7(5)6/h3-5H,1-2H2/t5-,7?/m0/s1
