20
gdb 60800	2.60865	1.12288	1.01211	2.2527	77.38	-0.2448	-0.0402	0.2046	1272.7913	0.167478	-440.316306	-440.305764	-440.30482	-440.352379	37.457	
C	 0.8577834074	 1.1563124118	 0.201105571	-0.358145
N	-0.0004610807	-0.0176566965	 0.0436310647	-0.077816
C	-0.7693383363	-0.3731518192	 1.1193146572	 0.147895
O	-0.7812462124	 0.2169183139	 2.1809554835	-0.344335
C	 0.048954229	-0.7342108376	-1.241940699	 0.151531
C	 1.478864977	-1.1760135872	-1.582852691	-0.404973
C	-0.8955963842	-1.9511019966	-1.2947976485	-0.451288
C	-0.4904067692	 0.2417162154	-2.3053408222	 0.149862
O	 0.0209772642	 0.4580652152	-3.3701180512	-0.241128
H	 1.8821302086	 0.8787085254	 0.4728040373	 0.135976
H	 0.8890145913	 1.7335260213	-0.7274351263	 0.135304
H	 0.4440717903	 1.76832787	 1.0017637584	 0.169268
H	-1.3954155661	-1.2580449452	 0.9370593006	 0.086251
H	 1.8364297627	-1.8955837089	-0.8411007352	 0.122101
H	 1.4978385158	-1.6413629499	-2.5703173888	 0.137978
H	 2.1674855258	-0.3295700757	-1.6108888555	 0.132837
H	-1.9440396419	-1.6772827154	-1.1461445677	 0.13615
H	-0.8040495791	-2.4115320729	-2.2820274544	 0.141103
H	-0.6205664834	-2.7003030111	-0.547641572	 0.142222
H	-1.4383052087	 0.7383615634	-1.992350661	 0.089205
37.1706	63.8845	129.2793	151.5421	221.1264	251.6126	274.7959	303.7696	329.8396	347.5776	360.5244	386.9166	417.6299	440.1698	519.9726	692.1518	794.0788	852.2426	913.9218	949.9804	1006.5708	1022.2548	1038.013	1056.3864	1152.968	1173.8798	1184.0637	1245.8418	1268.0783	1374.4378	1394.7115	1401.8451	1422.8249	1443.1051	1452.8768	1481.2575	1484.9523	1494.683	1502.2597	1512.1843	1528.1295	1778.7482	1838.6084	2868.3378	3030.8568	3037.794	3046.5304	3057.3542	3097.0726	3119.2442	3122.6313	3134.3735	3141.973	3161.1171
CN(C=O)C(C)(C)C=O	CN(C=O)C(C)(C)C=O	
InChI=1S/C6H11NO2/c1-6(2,4-8)7(3)5-9/h4-5H,1-3H3	InChI=1S/C6H11NO2/c1-6(2,4-8)7(3)5-9/h4-5H,1-3H3
