14
gdb 42245	3.05735	1.20601	1.02911	4.6375	75.68	-0.2672	-0.0462	0.2209	1146.3368	0.099531	-395.66875	-395.660217	-395.659273	-395.70253	30.629	
N	 0.2339000128	 1.2826149893	-0.2840345438	-0.473874
C	 0.2192839089	 0.0456071587	 0.0126156574	 0.156301
C	-0.9696389558	-0.7397870518	-0.1746811009	 0.368063
C	-1.9392513733	-1.4330625152	-0.329620947	-0.432331
N	 1.2686170374	-0.6830265654	 0.6279732345	-0.099076
C	 1.7849284357	-1.9240821023	 0.1004754426	-0.236337
C	 2.6450374554	-0.6853710956	 0.1462809181	-0.170643
C	 3.0012035705	-0.0348194015	-1.0933957968	 0.291587
N	 3.3154537861	 0.4991111876	-2.0694891701	-0.314622
H	 1.1479363375	 1.7008498872	-0.1019838277	 0.235301
H	-2.8125493602	-2.0213231579	-0.4730896849	 0.217188
H	 1.9660758525	-2.7148351032	 0.8224164426	 0.145765
H	 1.442581051	-2.2461164467	-0.8793014419	 0.159165
H	 3.3992802815	-0.5910196231	 0.9228348479	 0.153514
47.69	111.6894	144.5873	213.8401	251.3941	282.8162	314.0937	466.0896	538.7088	547.7312	641.607	667.4322	669.1803	710.2913	731.4407	807.0733	881.3087	913.575	974.2175	1042.1323	1059.2486	1115.5454	1131.9559	1159.7108	1286.4095	1351.1485	1385.7312	1508.338	1685.5695	2238.7502	2358.4585	3115.9143	3151.5434	3211.4149	3473.5772	3498.9109
N=C(C#C)N1CC1C#N	[NH][C](C#C)N1C[C@H]1C#N	
InChI=1S/C6H5N3/c1-2-6(8)9-4-5(9)3-7/h1,5,8H,4H2	InChI=1S/C6H5N3/c1-2-6(8)9-4-5(9)3-7/h1,5,8H,4H2/t5-,9?/m1/s1
