19
gdb 74009	2.10805	1.81181	1.05783	2.6849	84.22	-0.2282	-0.0135	0.2147	1155.3911	0.159047	-385.901215	-385.892916	-385.891972	-385.934195	31.7	
C	-0.0797635969	 1.4423477176	-0.0888767457	-0.491076
C	 0.0016633881	-0.0368165874	 0.115691284	 0.151903
C	-0.9965166696	-0.9098921337	 0.280524922	 0.193507
C	-2.4353411959	-1.1573315841	-0.1194277713	-0.313296
C	-1.9087092812	-2.5095321703	-0.7394831543	-0.237212
C	-0.6053542533	-2.3483487277	 0.1222873657	-0.156572
C	 0.8338752896	-2.2423008182	-0.4039372441	 0.369877
O	 1.4668683319	-3.0559418664	-1.0181798236	-0.297518
C	 1.3071359077	-0.8098120764	-0.0197248698	-0.405492
H	 0.4499545005	 1.9869518296	 0.703321281	 0.129334
H	 0.388958507	 1.7390585954	-1.0361615233	 0.125436
H	-1.1171460142	 1.7885778678	-0.0947091893	 0.124239
H	-3.1039752289	-1.3486361307	 0.726740397	 0.113224
H	-2.9115172832	-0.4352259948	-0.7877479891	 0.109867
H	-2.5107103911	-3.4013065971	-0.5548925621	 0.109382
H	-1.708180366	-2.4202127234	-1.8091249182	 0.120328
H	-0.6286758928	-2.9733110613	 1.0235727139	 0.099546
H	 1.9736665601	-0.4049991003	-0.7901065926	 0.125442
H	 1.8990277485	-0.8644236885	 0.9054742097	 0.129082
77.8009	144.6412	181.9159	205.7575	239.7755	304.2072	405.2053	456.7057	549.9939	580.0056	618.6377	666.166	733.0609	770.9189	859.4644	876.0789	885.3018	936.8907	964.7124	1008.9671	1025.9584	1074.6596	1081.8157	1128.3505	1155.3243	1161.6308	1175.7407	1200.2903	1221.3338	1248.8049	1254.2175	1273.6161	1308.7046	1413.3209	1451.4481	1475.8637	1477.7087	1487.5597	1491.2338	1750.4387	1854.9136	3007.7156	3014.6476	3030.5533	3044.5398	3059.3037	3065.5732	3072.5547	3097.331	3107.4106	3134.6486
CC1=C2CCC2C(=O)C1	C[C]1[C]2CC[C@H]2C(=O)C1	
InChI=1S/C8H10O/c1-5-4-8(9)7-3-2-6(5)7/h7H,2-4H2,1H3	InChI=1S/C8H10O/c1-5-4-8(9)7-3-2-6(5)7/h7H,2-4H2,1H3/t7-/m1/s1
