21
gdb 121900	2.25988	1.24297	0.97649	3.2876	76.23	-0.228	0.0632	0.2912	1312.7299	0.181563	-457.565322	-457.554578	-457.553634	-457.601916	37.876	
C	 0.3006217423	 0.8608700959	-0.1324069533	-0.255709
O	-0.7006527768	 0.4285118735	 0.7737940789	-0.227824
C	-1.6210310224	-0.4866092424	 0.2357295435	-0.062495
C	-1.062049356	-1.9026208538	 0.0056992098	-0.203582
N	-0.4492432063	-2.4922978758	 1.1867748334	-0.084047
C	-1.2886994802	-2.7967879464	 2.3318277213	-0.351227
C	 0.9257857886	-2.4943472926	 1.2699424178	 0.470142
N	 1.4485908441	-2.9214478714	 2.4817650865	-0.567195
O	 1.6575222106	-2.1262434003	 0.3610948236	-0.41824
H	 0.8368475215	 1.6758340949	 0.3604876403	 0.121119
H	 1.0103185555	 0.0602234265	-0.3696504301	 0.153218
H	-0.1466497159	 1.2464485604	-1.0624213138	 0.092639
H	-2.4497858687	-0.5247563935	 0.9530877127	 0.096585
H	-2.0344438839	-0.1236675115	-0.7217012571	 0.084378
H	-1.885858836	-2.5425947151	-0.3390705909	 0.09476
H	-0.296211062	-1.8946554865	-0.7696886217	 0.149643
H	-1.1511636752	-3.8311316286	 2.6754879792	 0.120209
H	-1.1077426668	-2.1204768111	 3.1761252264	 0.144373
H	-2.335845501	-2.7005210725	 2.0392830891	 0.136299
H	 0.9283525746	-3.5689080782	 3.050945166	 0.247672
H	 2.436455614	-3.1122711213	 2.4204454487	 0.259282
41.8597	62.6462	116.3645	130.9356	152.2133	185.7162	213.8509	275.841	325.7992	398.5494	410.4081	427.3065	487.0092	535.2609	571.2883	604.9068	752.6762	772.782	834.0986	926.8096	984.8017	1057.2152	1083.3491	1102.2796	1136.3456	1142.9838	1192.2418	1219.1233	1234.1841	1283.9984	1312.5548	1332.6206	1394.1206	1409.9595	1426.2527	1465.0631	1474.6999	1485.6563	1491.4126	1495.1903	1500.578	1521.4911	1523.5407	1624.7382	1766.0879	2955.5089	2979.1583	3001.6986	3017.1617	3050.2462	3056.0788	3069.3143	3115.1064	3125.4809	3141.8486	3591.7249	3707.0127
COCCN(C)C(N)=O	COCCN(C)C(=O)N	
InChI=1S/C5H12N2O2/c1-7(5(6)8)3-4-9-2/h3-4H2,1-2H3,(H2,6,8)	InChI=1S/C5H12N2O2/c1-7(5(6)8)3-4-9-2/h3-4H2,1-2H3,(H2,6,8)
