22
gdb 86307	1.96236	1.72017	1.13589	1.9354	82.22	-0.2126	0.0728	0.2854	1185.4981	0.19349	-404.303025	-404.293718	-404.292774	-404.337162	34.887	
C	-0.1174040995	 1.6065845055	-0.1795650641	-0.418306
C	 0.041463931	 0.1020728011	-0.0432924364	-0.046535
C	 1.1315012461	-0.6171000278	-0.8775129938	-0.189354
N	 1.435148958	-1.4425463294	 0.2996214456	-0.097554
C	 2.7858334682	-1.8946255033	 0.5401478892	-0.333709
C	 0.7501107255	-0.5102162126	 1.1999768759	 0.272788
C	 1.4993298115	 0.3896882181	 2.2259725625	-0.139638
O	 0.6628210319	-0.079690908	 3.300147619	-0.275401
C	-0.0005515558	-1.0274213585	 2.4389471337	-0.127834
H	 0.8429609595	 2.125996955	-0.0967185097	 0.117802
H	-0.545464724	 1.8601540746	-1.155385533	 0.118781
H	-0.7850837045	 2.0106009941	 0.5892793297	 0.124766
H	-0.9262995794	-0.3915697384	-0.1788234694	 0.084136
H	 0.8236591393	-1.1761590246	-1.76848617	 0.097578
H	 1.9510284124	 0.0674341433	-1.158228767	 0.079631
H	 3.5377565939	-1.0841540585	 0.5324787394	 0.094013
H	 2.8450496882	-2.4037609444	 1.5079625727	 0.125905
H	 3.0690131942	-2.6180919991	-0.2321822262	 0.122017
H	 2.5547517378	 0.1312111311	 2.3833046535	 0.096487
H	 1.4184967257	 1.4743338153	 2.0883247521	 0.09884
H	-1.0908002662	-0.897248501	 2.4381968942	 0.097013
H	 0.2367860762	-2.0681480422	 2.698613672	 0.098577
65.2342	93.0794	191.5286	211.5594	231.1657	238.4717	276.2542	299.3525	396.9962	452.6586	490.1545	515.26	643.3419	762.1963	850.3908	886.0896	923.1172	935.3231	974.5775	985.7964	997.0333	1037.3215	1084.9988	1111.9684	1132.314	1145.0328	1156.3517	1167.5324	1176.3174	1188.0188	1215.4183	1257.3302	1265.9112	1288.711	1301.8929	1335.1257	1380.2244	1381.2818	1412.9352	1450.9773	1485.8259	1494.1447	1497.4555	1501.7847	1510.2322	1525.7525	1529.7749	2935.5834	2950.0289	2997.5949	3015.2651	3030.1833	3042.3953	3045.5113	3054.3267	3055.9065	3057.2574	3095.7624	3096.2221	3101.8636
CC1CN(C)C11COC1	C[C@H]1CN(C)C21COC2	
InChI=1S/C7H13NO/c1-6-3-8(2)7(6)4-9-5-7/h6H,3-5H2,1-2H3	InChI=1S/C7H13NO/c1-6-3-8(2)7(6)4-9-5-7/h6H,3-5H2,1-2H3/t6-/m0/s1
