22
gdb 82093	2.74513	1.39065	1.09144	1.0943	86.43	-0.2286	0.0832	0.3119	1202.3226	0.194582	-367.150812	-367.142132	-367.141187	-367.184218	33.747	
C	-0.4363157612	 1.4346493589	 0.655465539	-0.404797
C	-0.1009366972	-0.0071601444	 0.293661733	-0.004515
C	 0.1885949989	-0.3624743668	-1.1730906777	-0.059958
C	 1.4649579511	 0.2704700181	-1.6503014752	-0.27882
C	 1.546240254	-0.9603927359	-0.792437801	-0.064749
C	 1.3094355799	-0.6033188329	 0.6775144018	 0.021297
N	 2.2643633176	 0.3203256036	 1.2659721343	-0.050904
C	 2.3544902789	 0.320163297	 2.7228827722	-0.222771
C	 3.4344077485	-0.2836177469	 1.8958161598	-0.225236
H	 0.3351259393	 2.1285493264	 0.3142143391	 0.127492
H	-1.3882087519	 1.7306025956	 0.2003688248	 0.107411
H	-0.5332442211	 1.5568877187	 1.7396183609	 0.109657
H	-0.8772461534	-0.6697972796	 0.689784874	 0.067902
H	-0.5434685745	-0.7553817128	-1.8689308374	 0.079087
H	 1.6893340465	 0.1103573315	-2.700134557	 0.105191
H	 1.8027696557	 1.2250057524	-1.2603521836	 0.122725
H	 2.008873506	-1.8761362402	-1.1402624038	 0.078385
H	 1.1920181745	-1.5088739102	 1.2958433848	 0.048203
H	 2.4923598989	 1.2910734826	 3.1900688552	 0.114834
H	 1.7102111812	-0.3635128632	 3.2744459971	 0.107176
H	 3.5103476322	-1.3702554905	 1.8943060605	 0.10732
H	 4.3757225763	 0.2374929585	 1.7469467093	 0.115068
74.6112	119.7105	158.6434	187.6169	246.6277	280.5539	322.4713	455.9801	486.1492	570.0478	675.8131	754.3685	781.1989	802.6859	828.2857	887.1687	903.6553	922.7818	935.41	980.9076	994.1511	1021.6357	1035.4959	1061.2356	1067.4119	1084.0967	1099.1238	1103.1112	1112.1452	1116.8381	1143.9133	1170.7869	1190.6117	1198.9709	1236.036	1278.0955	1310.4679	1322.3099	1363.4641	1369.9152	1380.0739	1409.7543	1484.2235	1490.1594	1491.4163	1500.7854	1517.4816	2946.6351	3032.2193	3048.5696	3090.0032	3091.9796	3094.5615	3122.1992	3128.6046	3171.9829	3173.9939	3182.7454	3188.2293	3211.6869
CC1C2CC2C1N1CC1	C[C@H]1[C@H]2C[C@H]2[C@H]1N1CC1	
InChI=1S/C8H13N/c1-5-6-4-7(6)8(5)9-2-3-9/h5-8H,2-4H2,1H3	InChI=1S/C8H13N/c1-5-6-4-7(6)8(5)9-2-3-9/h5-8H,2-4H2,1H3/t5-,6+,7+,8-/m0/s1
