20
gdb 22827	2.19246	1.49833	0.95662	0.6035	78.63	-0.2374	0.0091	0.2464	1241.7441	0.171459	-440.257772	-440.248932	-440.247988	-440.291111	33.907	
C	-0.0995749305	 1.5351835784	-0.0026401268	-0.399841
C	 0.0596497664	 0.0161175673	 0.048618621	-0.064974
C	 0.8045526721	-0.5170616144	-1.1959204805	-0.079875
O	 0.9479363672	-1.9233233594	-1.1765268075	-0.242022
C	 1.7220752846	-2.3613198063	-0.0767606433	-0.082417
C	 1.0696807108	-1.9846616096	 1.2649772432	-0.303502
C	 0.7670757234	-0.5072661702	 1.2799602478	 0.357333
N	 1.0773799887	 0.3227565412	 2.1992150665	-0.200541
O	 1.7355080223	-0.2849977453	 3.2831519434	-0.400462
H	 0.8737415531	 2.0345617706	-0.0035290232	 0.124224
H	-0.6405483911	 1.8291418521	-0.908005875	 0.105718
H	-0.6510327316	 1.901440233	 0.8655694563	 0.130825
H	-0.9353291502	-0.4534166332	 0.0279859351	 0.092526
H	 0.243495761	-0.2750470799	-2.1033519808	 0.109131
H	 1.7931695216	-0.0305297177	-1.264109342	 0.090001
H	 1.8118855538	-3.4468306825	-0.1721599425	 0.110249
H	 2.7349473115	-1.9280522042	-0.128481249	 0.095451
H	 0.1296326832	-2.5424680468	 1.3627990391	 0.119494
H	 1.7152048253	-2.2587826419	 2.0999917897	 0.133813
H	 1.8974600283	 0.4668598988	 3.8621056586	 0.304869
79.6362	160.1434	202.2298	227.6816	254.1327	299.2676	351.0064	362.3045	421.5276	445.9235	466.1633	527.6129	612.2311	685.5995	763.0501	849.766	894.1119	915.6532	964.1272	984.1902	999.3261	1052.0315	1101.0163	1129.5571	1133.2707	1151.1665	1203.1467	1246.6974	1253.8833	1306.8977	1319.6207	1345.3562	1359.5323	1388.6056	1406.0512	1410.8131	1425.9003	1469.726	1487.4617	1492.7835	1497.9711	1505.995	1733.2384	2956.8282	2969.5193	2998.3097	3034.4765	3042.9572	3083.5079	3090.5714	3110.1142	3129.9335	3134.0867	3824.892
CC1COCCC1=NO	C[C@H]1COCCC1=NO	
InChI=1S/C6H11NO2/c1-5-4-9-3-2-6(5)7-8/h5,8H,2-4H2,1H3	InChI=1S/C6H11NO2/c1-5-4-9-3-2-6(5)7-8/h5,8H,2-4H2,1H3/t5-/m0/s1
