21
gdb 72478	2.54945	1.83248	1.50424	2.0755	76.96	-0.2469	0.08	0.3269	992.842	0.185027	-424.25653	-424.248931	-424.247987	-424.287933	31.497	
C	-0.0697855725	 1.4695892114	 0.0833075281	-0.445231
C	 0.0112574607	-0.038445077	-0.0242942797	 0.476057
C	 0.7622162048	-0.6214654188	-1.2306575105	-0.256242
C	 0.9384346924	-2.057713971	-0.7122563269	-0.04427
C	 1.4181524089	-1.750478965	 0.7155128682	-0.08757
O	 0.7239379247	-0.5541782569	 1.0994108124	-0.296368
C	-0.4487449762	-2.7305841696	-0.7105617515	-0.229767
C	-1.4255799742	-1.9284620975	 0.1661477457	-0.070083
O	-1.3283095117	-0.5220531232	-0.0353882204	-0.292868
H	 0.9314232768	 1.9054272467	 0.051470318	 0.116378
H	-0.6655663734	 1.8726902868	-0.7391914093	 0.124017
H	-0.5475697436	 1.7432358043	 1.0268762625	 0.132873
H	 0.1791802185	-0.546969968	-2.1503579003	 0.103647
H	 1.7243766006	-0.1173792227	-1.3680381214	 0.096547
H	 1.6669692841	-2.6473808794	-1.274009821	 0.068585
H	 1.1855000505	-2.5452585855	 1.4338952156	 0.101331
H	 2.5010990205	-1.5675329872	 0.7432231106	 0.096592
H	-0.8189534443	-2.7839568337	-1.7408375096	 0.101731
H	-0.390202696	-3.7577397808	-0.3320244072	 0.095859
H	-2.4630303131	-2.1925839713	-0.0563296873	 0.103748
H	-1.2429907675	-2.1557504813	 1.2253378539	 0.105035
192.2829	200.9623	258.3903	276.9382	316.5405	377.9851	428.9474	460.8551	512.5568	570.5605	639.6425	774.6171	786.7211	815.9644	840.1575	878.8951	907.8503	926.614	946.129	985.0264	1002.156	1028.4182	1046.0098	1077.3548	1122.5421	1143.286	1153.188	1192.2245	1216.9233	1223.5534	1249.9469	1272.5033	1309.9312	1334.3279	1353.3217	1365.0468	1386.8448	1412.037	1415.0603	1478.0562	1479.8419	1488.0438	1490.8001	1506.2991	1526.4165	3006.5528	3011.0907	3030.7735	3051.3244	3053.9407	3056.4464	3072.6457	3080.9604	3090.9731	3119.2728	3135.0017	3136.8688
CC12CC(CO1)CCO2	C[C@@]12C[C@@H](CO1)CCO2	
InChI=1S/C7H12O2/c1-7-4-6(5-9-7)2-3-8-7/h6H,2-5H2,1H3	InChI=1S/C7H12O2/c1-7-4-6(5-9-7)2-3-8-7/h6H,2-5H2,1H3/t6-,7-/m0/s1
