19
gdb 33746	2.35969	1.65471	1.2622	0.5533	87.65	-0.2561	0.0412	0.2973	1077.3612	0.158899	-348.653476	-348.64553	-348.644586	-348.685583	32.25	
C	-0.0025683468	-1.1392535633	-0.0432178479	-0.371411
C	-0.0012094695	 0.0635542269	-0.0017780388	 0.056934
C	-0.0141940835	 1.4960027021	 0.0233117022	 0.188048
C	-0.6361663224	 2.4420541232	 1.1099385958	-0.254157
C	-0.0506289651	 3.3951290274	 0.0246009936	-0.160588
C	 1.2094671957	 2.4782161478	 0.0002611815	-0.254157
C	-0.6609234855	 2.4456641065	-1.0213882036	 0.426041
C	-0.6595963938	 2.4177356871	-2.5065613579	-0.373556
C	-1.9720950988	 2.3920188845	-1.717428756	-0.373556
H	 0.0000895537	-2.2006444468	-0.0733832719	 0.178167
H	-1.7232026319	 2.4103052462	 1.2063445494	 0.102593
H	-0.1361342635	 2.4408487063	 2.0819222779	 0.094486
H	-0.0734192136	 4.4842206469	 0.0221896485	 0.078581
H	 1.8334334208	 2.4794394541	 0.8977300824	 0.094487
H	 1.8048439545	 2.4794311799	-0.9148753856	 0.102593
H	-0.4141382568	 3.3252891117	-3.0496564866	 0.112358
H	-0.3608231526	 1.5022298525	-3.0080334738	 0.120389
H	-2.5285298317	 1.4597581912	-1.704715414	 0.12039
H	-2.5927519193	 3.2826037157	-1.7397756352	 0.112358
108.7216	146.321	219.9477	260.4712	283.1599	465.0497	490.0721	491.6351	563.8026	611.0314	630.3261	636.3112	651.4411	771.5481	783.8963	804.2363	908.6959	911.4572	942.1995	943.5755	970.8674	973.6345	1046.9929	1054.519	1064.91	1070.9787	1082.9449	1134.6673	1152.1525	1166.29	1181.2707	1206.7876	1211.603	1233.9469	1291.9715	1402.1282	1457.4419	1490.5806	1506.9222	1538.0056	2230.9874	3057.4308	3060.9598	3118.9624	3121.9539	3124.3029	3130.7095	3132.9059	3196.6694	3210.2767	3501.1433
C#CC12CC(C1)C21CC1	C#C[C@@]12C[C@@H](C1)C12CC1	
InChI=1S/C9H10/c1-2-8-5-7(6-8)9(8)3-4-9/h1,7H,3-6H2	InChI=1S/C9H10/c1-2-8-5-7(6-8)9(8)3-4-9/h1,7H,3-6H2/t7-,8+
