13
gdb 50787	7.25967	0.61328	0.5655	5.4962	88.83	-0.2567	-0.074	0.1827	1799.3804	0.087402	-415.572194	-415.563113	-415.562169	-415.607272	31.384	
N	 0.0754821947	 1.4777519261	 0.0073820685	-0.464157
C	 0.081167146	 0.2020332028	 0.0008792329	 0.162126
N	-1.097141869	-0.5582233039	 0.0077835668	-0.323374
C	-2.4168091368	-0.1260437368	 0.0244213697	 0.158011
O	-2.8076683741	 1.0078106186	 0.0355241577	-0.251579
C	 1.2660255623	-0.6109867172	-0.0140537886	 0.411488
C	 2.2873359484	-1.2643739985	-0.0267436598	-0.229819
C	 3.4341276605	-1.9916490095	-0.0409470795	 0.296587
C	 4.4518689318	-2.6413997642	-0.0535647855	-0.55199
H	 1.0334184926	 1.825427046	 0.000585844	 0.238205
H	-0.9648965865	-1.5581511437	 0.0004552175	 0.265237
H	-3.0915747872	-1.0067989806	 0.0252213803	 0.082469
H	 5.3489923573	-3.2103518191	-0.0646724041	 0.206796
35.8325	66.8269	117.6954	202.9561	235.1146	237.6354	319.2544	359.1861	505.363	556.1665	559.4603	573.0993	613.3448	618.1238	626.9815	726.408	873.8445	921.3348	949.1406	1023.9841	1157.8045	1176.9171	1329.4244	1448.8245	1532.2995	1675.3856	1848.6249	2178.9447	2342.4943	2921.6813	3499.7187	3502.8269	3628.1753
N=C(NC=O)C#CC#C	N=C(NC=O)C#CC#C	
InChI=1S/C6H4N2O/c1-2-3-4-6(7)8-5-9/h1,5H,(H2,7,8,9)	InChI=1S/C6H4N2O/c1-2-3-4-6(7)8-5-9/h1,5H,(H2,7,8,9)
