14
gdb 129483	4.62034	1.06001	0.93116	3.4262	64.01	-0.2645	-0.0419	0.2226	1185.6511	0.102818	-466.199914	-466.192164	-466.19122	-466.233558	27.433	
N	 0.4097449377	 0.0691502942	-0.9380422755	-0.515942
C	-0.0350980992	 0.1964100146	 0.3341562967	 0.389597
O	 0.2656851577	 1.0969876112	 1.0884712006	-0.343476
C	-1.0333641852	-0.8755670027	 0.8187599147	-0.25393
N	-0.9352934846	-2.1851076277	 0.1945520477	 0.150754
N	-1.1575357026	-2.4119983202	-1.0981791915	-0.262128
C	-0.9509566196	-3.7212939693	-1.1740415107	 0.080732
N	-0.6247702411	-4.265989909	 0.0171724852	-0.201131
N	-0.6165527529	-3.2773368645	 0.8772269207	-0.107422
H	 1.0005799978	 0.7989488449	-1.3021935126	 0.269443
H	 0.0329694151	-0.629103294	-1.5603737944	 0.281088
H	-0.8689943298	-1.0226517536	 1.8845608722	 0.186802
H	-2.0462569964	-0.4914524901	 0.6651078475	 0.168782
H	-1.0402525469	-4.2827000739	-2.0897793705	 0.156831
45.7863	59.2718	146.226	296.3293	339.7587	380.4468	392.267	506.733	572.2206	674.8168	701.9708	725.6879	818.0317	864.8305	905.1564	965.8937	1028.7565	1044.3675	1103.7379	1155.2863	1168.7693	1253.022	1321.9456	1331.1535	1354.115	1366.8134	1397.9571	1455.792	1494.9743	1623.0323	1816.2916	3076.6282	3173.0138	3288.3797	3571.332	3711.303
NC(=O)CN1N=CN=N1	NC(=O)Cn1ncnn1	
InChI=1S/C3H5N5O/c4-3(9)1-8-6-2-5-7-8/h2H,1H2,(H2,4,9)	InChI=1S/C3H5N5O/c4-3(9)1-8-6-2-5-7-8/h2H,1H2,(H2,4,9)
