16
gdb 10029	3.22737	1.06844	0.83824	3.2584	71.09	-0.2425	-0.0255	0.217	1344.1325	0.126847	-383.717707	-383.707818	-383.706874	-383.754875	32.366	
C	 0.0154347832	 1.4456927791	-0.0240286418	-0.498486
C	-0.0033174616	-0.0092681397	 0.0115743732	 0.078757
C	-0.0085937196	-1.213062721	 0.057744238	 0.041754
C	-0.0353108895	-2.6704230879	 0.0545760197	-0.275373
C	-1.4864620121	-3.2015428297	-0.0631134701	-0.071228
O	-1.5336799737	-4.6067922514	-0.1877182675	-0.405899
C	 0.790974298	-3.1946751529	-1.1254381072	 0.188276
O	 1.7487754012	-3.908655976	-1.0150862066	-0.243627
H	 0.8626342149	 1.8158748083	-0.611486821	 0.154907
H	-0.9006752761	 1.8449980584	-0.4724354668	 0.151872
H	 0.1026244085	 1.8644379027	 0.9843906265	 0.153623
H	 0.4255963511	-3.0707050808	 0.9668520776	 0.111251
H	-2.0691852431	-2.8319098957	 0.7921065556	 0.109887
H	-1.9451747111	-2.7991825552	-0.9716902053	 0.126853
H	-1.1607485012	-4.9980211437	 0.6092956829	 0.291223
H	 0.4231191814	-2.8450429447	-2.115627907	 0.086211
13.6226	61.2274	87.7234	99.1909	142.1853	238.18	283.8376	299.0882	328.5279	400.4367	464.5932	495.8958	516.1144	800.027	871.4493	976.8171	1041.0891	1050.4865	1054.0505	1072.0557	1106.4035	1170.6766	1181.8976	1276.6893	1315.7568	1378.8719	1402.4632	1414.2979	1421.6998	1476.6182	1477.3307	1505.1787	1843.4788	2365.9928	2889.0804	3009.7178	3029.0635	3030.0832	3088.7952	3092.4209	3092.7401	3813.658
CC#CC(CO)C=O	CC#C[C@@H](CO)C=O	
InChI=1S/C6H8O2/c1-2-3-6(4-7)5-8/h4,6,8H,5H2,1H3	InChI=1S/C6H8O2/c1-2-3-6(4-7)5-8/h4,6,8H,5H2,1H3/t6-/m1/s1
