14
gdb 11240	4.5969	1.49621	1.26969	1.3998	64.64	-0.2274	0.0212	0.2486	940.7449	0.107722	-378.706477	-378.698977	-378.698032	-378.738877	27.657	
N	 0.1239231546	 1.2724469859	 0.0850051273	-0.575058
C	-0.02724211	-0.0821680941	-0.0252015405	 0.475211
N	-1.0867599373	-0.755394047	 0.1860126544	-0.33974
C	-0.7722103053	-2.1375548435	-0.1566399301	-0.191952
C	 0.7529643927	-2.1242158797	-0.535108306	-0.080159
O	 1.0986982091	-0.7169775723	-0.4657058547	-0.250959
C	 1.6016279124	-2.9011615124	 0.3564338592	 0.339554
C	 2.2767647444	-3.5707010615	 1.0910676332	-0.47055
H	 1.0623442839	 1.5857196126	 0.2796171506	 0.264999
H	-0.5957222624	 1.7210634603	 0.6299512161	 0.269465
H	-0.96323405	-2.8076542969	 0.6869104589	 0.121385
H	-1.3807288609	-2.4834315432	-1.0003280642	 0.111626
H	 0.9171381372	-2.4414104055	-1.5695195769	 0.120384
H	 2.8787512314	-4.1589072627	 1.7390255926	 0.205795
35.244	153.3122	224.7745	256.1508	363.8035	419.1908	482.3265	538.2902	555.3988	615.4238	674.0186	702.2074	734.4692	768.5434	828.699	947.1182	995.9103	1008.0074	1034.8916	1070.2987	1181.6888	1205.4912	1287.234	1316.3354	1356.1978	1427.7768	1510.4562	1619.8771	1768.2932	2238.9982	3031.0082	3057.9111	3078.2452	3502.6371	3590.3161	3703.7724
NC1=NCC(O1)C#C	NC1=NC[C@@H](O1)C#C	
InChI=1S/C5H6N2O/c1-2-4-3-7-5(6)8-4/h1,4H,3H2,(H2,6,7)	InChI=1S/C5H6N2O/c1-2-4-3-7-5(6)8-4/h1,4H,3H2,(H2,6,7)/t4-/m0/s1
