15
gdb 42538	4.43319	1.20927	1.11155	2.9929	77.38	-0.2441	-0.0082	0.2359	1077.099	0.1119	-383.424723	-383.417459	-383.416515	-383.456344	28.692	
O	 0.044147986	 0.0731238745	 0.0191241669	-0.332473
C	 0.0095484023	 1.2683195567	-0.033227512	 0.455418
C	-1.0837697787	 2.295317165	 0.0074282511	-0.248738
C	-0.1140354811	 3.2340256288	 0.7382141691	-0.123075
C	 1.066892905	 2.384989933	 0.1129932982	-0.214926
C	 0.9006692697	 3.1979827771	-1.2003020105	-0.297613
C	-0.5007404446	 3.5647215162	-0.6788086687	 0.244196
C	-1.3655694772	 4.5880973973	-1.1577802864	 0.106928
C	-2.0775373478	 5.4605095147	-1.5813221232	-0.365587
H	-2.1495585399	 2.1858349634	 0.1484080828	 0.122682
H	-0.2493542484	 3.7455962422	 1.6782581616	 0.125639
H	 2.0386156755	 2.1862934451	 0.554431851	 0.101978
H	 1.5411150389	 4.0825813093	-1.2219168514	 0.120973
H	 0.9777009208	 2.6516813854	-2.145889922	 0.115459
H	-2.7088860907	 6.2292695513	-1.9528288363	 0.189139
113.1842	143.6433	198.8661	362.5693	443.6527	486.0781	508.8142	529.9797	597.8502	625.8637	662.5278	715.0253	757.2639	810.0269	831.4445	858.2092	893.3892	926.9548	950.9668	1004.9286	1039.6258	1055.3333	1114.8891	1119.4845	1138.3443	1179.098	1215.6591	1240.7118	1271.7895	1372.5415	1500.6226	1887.7827	2238.1154	3050.6708	3116.5097	3174.7866	3229.8007	3249.1395	3502.2694
O=C1C2C3C1CC23C#C	O=C1[C@H]2[C@H]3[C@@H]1C[C@@]23C#C	
InChI=1S/C8H6O/c1-2-8-3-4-5(8)6(8)7(4)9/h1,4-6H,3H2	InChI=1S/C8H6O/c1-2-8-3-4-5(8)6(8)7(4)9/h1,4-6H,3H2/t4-,5+,6+,8+/m0/s1
