19
gdb 93726	2.46678	1.38509	1.13879	2.7695	75.41	-0.2262	0.0148	0.241	1146.0408	0.159411	-419.210086	-419.201004	-419.20006	-419.244324	33.913	
C	-0.4484893675	 1.42664235	 0.20971782	-0.338992
N	 0.1208054473	 0.0955323332	 0.0078547599	-0.047405
C	-0.8663182798	-0.9120023477	-0.3920452553	-0.185427
C	-1.503439743	-1.4207897029	 0.9209969041	-0.252901
C	-0.3243498277	-1.3882203397	 1.9229916026	 0.250742
O	 0.1461269216	-2.7201427552	 2.0837929334	-0.450779
C	 0.7439832521	-0.4685194131	 1.1960083701	-0.235336
C	-0.7114458759	-0.8366663199	 3.2327726003	 0.227845
N	-0.9765971621	-0.3977601642	 4.2695594854	-0.346459
H	 0.3465282925	 2.1183588374	 0.5021102951	 0.128618
H	-0.8687818897	 1.7831430155	-0.7352080109	 0.125809
H	-1.2405138791	 1.4793344719	 0.9771581077	 0.109069
H	-1.5926705298	-0.4923964415	-1.091325466	 0.110357
H	-0.3484638082	-1.7368269454	-0.8961404745	 0.11688
H	-2.3017695683	-0.7524654748	 1.2506252406	 0.127905
H	-1.9062430928	-2.4332831109	 0.8620674038	 0.132368
H	 0.9034750277	-2.7087326958	 2.6805092588	 0.291452
H	 1.5556487979	-1.1483245629	 0.9081002303	 0.113142
H	 1.1516175447	 0.3113158161	 1.8420283847	 0.123115
31.9509	145.8293	186.1437	188.3004	217.4556	300.1859	339.5837	394.4763	410.1489	434.8574	497.6875	565.9003	598.4474	646.2895	745.1601	821.7844	865.0571	906.7812	939.649	1001.5298	1031.1262	1042.8937	1066.5837	1111.0134	1127.5813	1160.5413	1220.8945	1245.4327	1283.8884	1313.6867	1319.0666	1345.285	1368.1716	1384.3903	1457.9802	1478.7866	1483.4616	1496.8372	1505.7215	1507.2586	2342.9003	2952.8678	3024.9022	3035.4999	3070.9112	3082.1106	3108.6207	3114.1633	3117.8724	3136.7751	3799.0622
CN1CCC(O)(C1)C#N	CN1CC[C@@](O)(C1)C#N	
InChI=1S/C6H10N2O/c1-8-3-2-6(9,4-7)5-8/h9H,2-3,5H2,1H3	InChI=1S/C6H10N2O/c1-8-3-2-6(9,4-7)5-8/h9H,2-3,5H2,1H3/t6-/m0/s1
