19
gdb 72248	2.41518	1.72594	1.48216	0.8538	74.75	-0.2172	0.0698	0.287	999.5866	0.159396	-422.994257	-422.986217	-422.985272	-423.026247	31.816	
C	-0.1114524649	 1.5089250533	 0.0169119647	-0.506948
C	-0.0064611779	 0.0131327496	-0.0401607218	 0.25387
C	 0.8575714853	-0.8009312276	-1.0072138239	-0.276482
C	-0.0953379884	-2.0227743128	-0.7963764103	-0.140514
C	 0.416004804	-2.8915135523	 0.3511764962	-0.08547
O	 0.5415479993	-1.9800055851	 1.455538639	-0.269278
C	-0.3060880792	-0.8859683989	 1.1708608993	-0.030444
C	-1.0936493036	-1.0596269082	-0.0781840421	 0.299511
O	-2.4534816747	-0.9330086941	-0.2718546286	-0.465677
H	 0.8181082748	 1.9578976129	 0.3858452747	 0.122364
H	-0.3152727502	 1.928503405	-0.974902879	 0.121036
H	-0.9228220005	 1.824725702	 0.6806872502	 0.122511
H	 0.7973936711	-0.4055745552	-2.0249786626	 0.101255
H	 1.9082291829	-0.9522972316	-0.7363525974	 0.09746
H	-0.4332986886	-2.5578755558	-1.6826975006	 0.079033
H	-0.2951509769	-3.697033677	 0.597331336	 0.083926
H	 1.399088711	-3.3366860164	 0.1666998228	 0.107835
H	-0.7323085376	-0.4155284294	 2.0499066771	 0.098866
H	-2.9093159059	-1.5274385585	 0.3345456564	 0.287146
167.611	184.4772	212.6442	246.7278	261.5714	318.2963	332.2665	421.5884	521.2242	548.5368	635.2689	705.4396	756.6169	772.1072	845.6233	894.6826	923.2472	929.6618	965.4093	990.7791	1013.127	1040.4517	1068.0724	1107.3994	1143.1769	1153.8159	1165.2145	1223.7109	1229.3532	1231.9104	1266.9936	1294.4391	1314.6384	1339.301	1371.0887	1414.4959	1466.3216	1485.7358	1493.2302	1513.7849	1515.7709	2969.4015	3022.7222	3039.185	3071.9209	3082.6833	3095.9799	3097.3342	3129.5771	3183.7024	3788.622
CC12CC3COC1C23O	C[C@@]12C[C@H]3CO[C@@H]1[C@@]23O	
InChI=1S/C7H10O2/c1-6-2-4-3-9-5(6)7(4,6)8/h4-5,8H,2-3H2,1H3	InChI=1S/C7H10O2/c1-6-2-4-3-9-5(6)7(4,6)8/h4-5,8H,2-3H2,1H3/t4-,5-,6+,7+/m0/s1
