20
gdb 109346	2.8484	1.2662	0.95308	1.8463	80.8	-0.2309	0.018	0.2489	1258.2863	0.173038	-403.13032	-403.121946	-403.121002	-403.163412	32.396	
O	 0.2141036184	 1.3425945216	 0.1483052094	-0.410204
C	 0.0218895059	-0.0577757051	 0.1987173682	-0.149135
C	-1.4156728886	-0.504452697	 0.0855847751	 0.29197
C	-2.4525127778	 0.3361613775	 0.0874422867	-0.155885
C	-3.883088156	-0.1210700786	-0.0666493233	-0.257389
C	-3.9998188798	-1.4016189923	-0.9176927837	-0.211291
C	-2.9581187464	-2.4449598506	-0.5301344181	-0.0282
N	-1.7634640655	-2.5321857917	-1.3999286784	-0.339869
C	-1.6453344718	-1.972164436	-0.0283667231	-0.144374
H	-0.1070579331	 1.6428124999	-0.7088059859	 0.283103
H	 0.6116687551	-0.5742811913	-0.577915586	 0.103111
H	 0.439518348	-0.3793321772	 1.1627553693	 0.116432
H	-2.2675108721	 1.399147574	 0.2152963525	 0.089245
H	-4.3223268975	-0.288810062	 0.9280234846	 0.109945
H	-4.4824194024	 0.6762404764	-0.5200444133	 0.102012
H	-5.0074740046	-1.8209805439	-0.8290938901	 0.092389
H	-3.8461353306	-1.1460447613	-1.9706018742	 0.116164
H	-3.335950795	-3.3786995629	-0.1212105906	 0.082447
H	-1.4132521749	-3.4882264264	-1.4019861701	 0.225951
H	-1.127481191	-2.5877255132	 0.7064797712	 0.083579
83.4838	118.8153	185.5574	224.3391	272.7913	351.5042	372.0211	410.3979	509.4678	527.5763	584.645	684.4512	777.6404	798.2478	858.0289	873.2613	907.1402	931.0511	934.7753	988.1525	1000.6531	1035.3403	1069.5394	1079.2687	1115.7056	1152.4964	1171.7827	1196.5627	1218.7009	1227.0372	1246.4327	1279.0302	1315.1077	1348.3815	1362.9595	1389.7827	1412.0041	1418.0772	1460.0431	1477.3394	1486.6428	1491.4592	1732.5557	2960.1251	2998.4184	3027.8513	3042.4898	3058.6628	3089.5012	3106.8629	3135.1988	3166.6486	3480.8212	3808.0057
OCC1=CCCC2NC12	OCC1=CCC[C@H]2N[C@@H]12	
InChI=1S/C7H11NO/c9-4-5-2-1-3-6-7(5)8-6/h2,6-9H,1,3-4H2	InChI=1S/C7H11NO/c9-4-5-2-1-3-6-7(5)8-6/h2,6-9H,1,3-4H2/t6-,7+/m1/s1
