21
gdb 104092	2.39753	1.38345	1.15818	2.5542	78.92	-0.2502	0.0104	0.2606	1182.4209	0.181308	-424.235453	-424.225878	-424.224934	-424.26949	36.751	
C	-0.0583533214	 1.5567810181	 0.0904863874	-0.413489
C	 0.0215161056	 0.0275815165	 0.028660675	-0.193724
C	 0.7528461392	-0.5077028077	-1.2075663315	 0.329316
O	 0.0887294143	-0.1052906718	-2.4105593867	-0.47938
C	 2.2600743746	-0.1222409106	-1.2830190884	-0.30591
C	 2.9192764707	-1.3591454912	-1.839622728	-0.063903
C	 2.0902545196	-2.4011299559	-1.88281653	-0.113594
C	 0.741078989	-2.0724922038	-1.2991050317	 0.077316
O	 0.5206442179	-2.7487302316	-0.0626352218	-0.429892
H	 0.9349319458	 2.0191998501	 0.1052236958	 0.114701
H	-0.6095507228	 1.9650538381	-0.764058805	 0.110809
H	-0.584576013	 1.8811224136	 0.9929295849	 0.119453
H	 0.5185448303	-0.3554713769	 0.926040265	 0.087289
H	-0.9883543618	-0.3956612666	 0.0347537256	 0.109358
H	 0.1903072298	 0.8470213812	-2.5039341238	 0.2766
H	 2.4092499567	 0.7545598814	-1.9250801286	 0.099022
H	 2.6763928721	 0.1432439832	-0.301444337	 0.103181
H	 3.9559000818	-1.3706386144	-2.1604127728	 0.09724
H	 2.3383530432	-3.3984421406	-2.2281545795	 0.097615
H	-0.0973982404	-2.362997682	-1.9384984853	 0.103171
H	 1.356485519	-2.752672359	 0.4166452662	 0.274822
72.4938	100.4535	179.9243	215.8656	250.9659	286.3342	306.5768	345.6422	352.9189	394.4657	415.3791	509.6883	542.4296	644.6803	740.4979	776.1453	781.813	795.3189	915.7488	944.2485	967.6552	976.6264	984.8049	1002.1368	1035.5596	1058.9588	1108.1421	1126.1056	1133.3773	1179.3843	1211.9559	1253.0162	1288.4573	1302.1022	1313.8466	1349.0351	1366.2219	1388.3445	1408.6705	1421.3567	1466.747	1473.7718	1500.6733	1512.1491	1683.5454	3011.056	3030.085	3046.098	3048.2612	3075.7874	3077.9456	3100.9767	3104.9613	3178.6691	3206.6028	3800.9503	3819.3897
CCC1(O)CC=CC1O	CC[C@@]1(O)CC=C[C@H]1O	
InChI=1S/C7H12O2/c1-2-7(9)5-3-4-6(7)8/h3-4,6,8-9H,2,5H2,1H3	InChI=1S/C7H12O2/c1-2-7(9)5-3-4-6(7)8/h3-4,6,8-9H,2,5H2,1H3/t6-,7-/m1/s1
