25
gdb 69320	2.65534	1.29866	1.23254	0.1519	91.96	-0.2526	0.0804	0.333	1230.2826	0.229096	-352.377119	-352.367643	-352.366699	-352.410175	38.472	
C	-0.0363082242	 1.518019302	-0.0109779712	-0.483475
C	 0.0107052068	 0.0087856287	-0.0047201982	 0.367691
C	-0.8209532606	-0.7638884635	 0.9934743815	-0.360522
C	 0.6878014639	-0.793615593	 1.0871976841	-0.069391
C	 1.4340611351	-1.9797357561	 0.4698512237	 0.304684
C	 2.9191877339	-1.6038644274	 0.3087926852	-0.421618
C	 1.3151925904	-3.2640391469	 1.3013914551	-0.427147
C	 0.7584354386	-2.1263337418	-0.9249227692	-0.262497
C	 0.2910484483	-0.7094764764	-1.3224609739	-0.273875
H	 0.8859758532	 1.9432454506	-0.4252826431	 0.110487
H	-0.871179756	 1.8888462199	-0.6181672992	 0.113791
H	-0.1631176491	 1.9176756629	 1.0003943327	 0.11113
H	-1.3459661068	-0.1834835562	 1.7454983965	 0.102503
H	-1.3580292307	-1.6532573739	 0.6786567794	 0.103085
H	 1.1514821097	-0.2942567306	 1.9336147547	 0.06787
H	 3.3799280838	-1.3957725756	 1.2810630918	 0.10766
H	 3.4811656902	-2.420862096	-0.1573052644	 0.10631
H	 3.0439223467	-0.7113471296	-0.3130074915	 0.111366
H	 0.2669782701	-3.5294223185	 1.4723038777	 0.108928
H	 1.7985110069	-4.1076578284	 0.7950220891	 0.10621
H	 1.7947582355	-3.1481567922	 2.2799083496	 0.106236
H	 1.437024565	-2.5659669091	-1.6623424016	 0.090816
H	-0.0994806907	-2.8027586105	-0.8524637531	 0.09487
H	-0.576705928	-0.730214264	-1.992275309	 0.090666
H	 1.0875108478	-0.1750691042	-1.8556714367	 0.094223
128.6579	196.8248	218.0558	228.7126	233.0665	270.335	321.7677	336.4832	372.0903	385.5894	397.5459	482.2802	542.6702	586.3283	693.3089	751.7336	813.2694	847.4655	911.698	918.9883	939.0831	947.4697	954.3929	982.5338	998.6254	1013.075	1038.2797	1054.9329	1065.3846	1083.1172	1102.9234	1160.855	1200.1395	1217.1736	1243.9428	1263.5564	1278.7521	1310.1724	1333.0689	1345.7823	1397.0762	1402.5615	1417.5591	1424.5789	1482.7005	1485.1587	1488.1899	1489.3039	1494.7881	1501.9309	1504.331	1508.5825	1516.9238	3016.2394	3020.7882	3023.1299	3025.9371	3043.6317	3058.2998	3073.3088	3083.2578	3085.9106	3091.3898	3093.859	3097.2436	3098.9423	3122.3277	3141.5416	3202.1137
CC12CC1C(C)(C)CC2	C[C@]12C[C@H]1C(C)(C)CC2	
InChI=1S/C9H16/c1-8(2)4-5-9(3)6-7(8)9/h7H,4-6H2,1-3H3	InChI=1S/C9H16/c1-8(2)4-5-9(3)6-7(8)9/h7H,4-6H2,1-3H3/t7-,9-/m0/s1
