20
gdb 59481	2.70722	1.14005	0.89559	2.8209	75.13	-0.2513	0.0633	0.3146	1334.5371	0.169521	-440.226944	-440.217391	-440.216446	-440.261816	35.104	
C	 0.1094484771	 1.2896422859	 0.3075283254	-0.405179
C	-0.0365704518	-0.2287403964	 0.3958092342	 0.135051
O	 0.2820859129	-0.7134489426	 1.7011134456	-0.423932
C	-1.4194248011	-0.6799241442	-0.0304577351	-0.036768
N	-1.6541180745	-0.7812891064	-1.4768508129	-0.3458
C	-1.7057199044	-2.0016178421	-0.656012664	-0.072221
C	-0.6803907239	-3.0609463394	-0.9555001449	 0.061337
C	 0.2910782475	-3.5404036522	 0.0406647282	-0.173588
O	-0.8793395855	-4.2988874174	-0.2703733726	-0.240075
H	 1.1121841865	 1.5947529039	 0.6179627131	 0.124754
H	-0.0647081971	 1.6309772875	-0.7170401522	 0.133855
H	-0.6179936784	 1.7905791278	 0.9594834149	 0.10138
H	 0.6962999953	-0.6991076236	-0.266306601	 0.100107
H	-0.3255097461	-0.3039100618	 2.3269374723	 0.278069
H	-2.2235065922	-0.2596991643	 0.5783224316	 0.072856
H	-2.5886455286	-0.4685194412	-1.722700237	 0.23577
H	-2.6878702764	-2.4237041579	-0.446966528	 0.101539
H	-0.4327279674	-3.163998325	-2.0125461168	 0.10232
H	 1.2305078457	-3.9780579133	-0.2957587341	 0.109281
H	 0.3069834625	-3.0733613372	 1.0221863931	 0.141244
52.9382	85.7524	130.7288	180.8552	245.146	264.6667	278.0028	304.2343	354.1532	418.2687	459.9099	508.1561	635.5384	778.9416	827.578	868.5866	884.6769	907.5971	932.0299	968.5084	990.9573	1021.4587	1065.6039	1081.9322	1108.1628	1115.9732	1153.6883	1170.4755	1173.2378	1200.7222	1231.3394	1256.4046	1288.0216	1294.9656	1335.4519	1382.2465	1398.4164	1411.5296	1437.2364	1476.09	1493.9901	1496.3548	1530.2824	3022.7234	3068.2798	3079.6912	3086.5871	3100.4537	3104.9436	3116.9649	3125.133	3191.357	3514.0607	3800.122
CC(O)C1NC1C1CO1	C[C@@H](O)[C@H]1N[C@H]1[C@H]1CO1	
InChI=1S/C6H11NO2/c1-3(8)5-6(7-5)4-2-9-4/h3-8H,2H2,1H3	InChI=1S/C6H11NO2/c1-3(8)5-6(7-5)4-2-9-4/h3-8H,2H2,1H3/t3-,4-,5-,6+/m1/s1
