20
gdb 76266	2.43242	1.50406	1.00092	4.5194	83.42	-0.2309	-0.0198	0.2111	1226.071	0.170328	-403.213265	-403.203695	-403.202751	-403.247413	34.937	
C	-0.0041110821	 1.6197252166	 0.0398790472	-0.39942
C	 0.0506979789	 0.0846957823	 0.0052473783	-0.071731
N	 0.8113121406	-0.4309611047	-1.1169209714	-0.09241
C	 0.4458582548	-0.2526623265	-2.4998316845	-0.348336
C	 1.8411855588	-1.2633561914	-0.717817635	 0.419882
O	 2.6059008396	-1.8532440584	-1.4569975597	-0.407942
C	 1.7859901321	-1.2743487099	 0.7678961757	-0.335738
C	 0.7677411294	-0.523859827	 1.1989936378	 0.332443
C	 0.3285412255	-0.2669423899	 2.60317717	-0.493708
H	 1.0054693029	 2.0362454827	 0.1028845454	 0.130993
H	-0.4850280214	 2.0111504577	-0.8610553064	 0.126467
H	-0.5826528824	 1.9660786129	 0.9012476057	 0.122146
H	-0.9838876217	-0.2979148073	-0.0313513395	 0.090879
H	 0.4924674229	 0.7992980827	-2.8064786984	 0.120485
H	 1.160993288	-0.8245881882	-3.0947275718	 0.165562
H	-0.5668955139	-0.6260625176	-2.7030186878	 0.115851
H	 2.4880779906	-1.8422162858	 1.3627429282	 0.116206
H	 0.9316942381	-0.835858692	 3.3144987915	 0.136413
H	 0.4116150828	 0.7956232814	 2.8617696006	 0.138061
H	-0.7231312536	-0.5435891377	 2.7472250841	 0.133896
105.6626	117.4882	148.1804	164.9119	204.5447	240.4447	263.6428	275.9193	328.4818	386.2052	520.8718	546.3541	577.0336	679.4887	736.0157	775.1488	812.8366	878.6687	968.4518	1006.1973	1028.9763	1074.7381	1089.9277	1105.2606	1144.9507	1157.4755	1169.2717	1244.6279	1303.718	1332.8022	1345.3375	1402.0725	1409.0708	1418.343	1446.6765	1479.1444	1483.9879	1491.2588	1494.4343	1502.6243	1521.7952	1697.2658	1799.1411	2956.1703	3006.6711	3025.1287	3041.9057	3055.6274	3073.0315	3114.9878	3121.3227	3122.7181	3134.9125	3233.6178
CC1N(C)C(=O)C=C1C	C[C@H]1N(C)C(=O)C=C1C	
InChI=1S/C7H11NO/c1-5-4-7(9)8(3)6(5)2/h4,6H,1-3H3	InChI=1S/C7H11NO/c1-5-4-7(9)8(3)6(5)2/h4,6H,1-3H3/t6-/m1/s1
