16
gdb 75626	2.04868	1.8581	1.14094	1.2984	65.65	-0.2436	-0.0472	0.1964	1052.1811	0.122312	-474.977224	-474.968269	-474.967324	-475.010944	32.314	
O	 0.5341458034	 0.7828721843	-0.8048958459	-0.425252
C	 0.1035439712	-0.3234913966	-0.0753788924	-0.024591
C	 0.0068910456	-0.1853610359	 1.4495655984	 0.276002
O	 0.4093241947	 0.682113101	 2.1789109014	-0.313801
C	-1.2525184508	-1.0579893706	 1.5395112492	 0.002558
O	-2.2136715488	-0.6865259955	 2.4770237959	-0.42571
C	-1.4041711959	-0.6778415831	 0.0443850297	 0.243911
C	-2.503856758	 0.0955368223	-0.5573280668	-0.294015
N	-2.2751240717	-1.3253371148	-0.9189489183	-0.378538
H	 0.5261705216	 1.5430552075	-0.2090903247	 0.29785
H	 0.6795630494	-1.2033444512	-0.3890755555	 0.11992
H	-1.0369605615	-2.1287301792	 1.640943745	 0.120234
H	-1.9498415879	 0.170094842	 2.8366713264	 0.296796
H	-3.4044655272	 0.2735081881	 0.0222283717	 0.137084
H	-2.2393722895	 0.8643407348	-1.278109894	 0.128208
H	-1.8113915447	-1.3765361132	-1.8247590901	 0.239345
87.5256	126.3115	161.8022	191.0546	203.7743	243.5634	273.4333	310.6548	409.5589	528.9202	541.5727	635.0745	653.7871	776.6327	830.9502	873.7037	936.9927	950.4856	961.464	984.6182	1042.5972	1085.6699	1115.4948	1158.776	1171.6886	1220.6496	1259.6474	1269.714	1310.3052	1349.8766	1405.6188	1407.9292	1427.0006	1504.5111	1855.8563	3032.045	3043.6093	3114.9549	3209.5047	3476.0334	3771.6247	3773.7636
OC1C(=O)C(O)C11CN1	O[C@H]1C(=O)[C@@H](O)[C@]21CN2	
InChI=1S/C5H7NO3/c7-2-3(8)5(1-6-5)4(2)9/h3-4,6,8-9H,1H2	InChI=1S/C5H7NO3/c7-2-3(8)5(1-6-5)4(2)9/h3-4,6,8-9H,1H2/t3-,4+,5+
